
                                 *****************
                                 * O   R   C   A *
                                 *****************

                                            #,                                       
                                            ###                                      
                                            ####                                     
                                            #####                                    
                                            ######                                   
                                           ########,                                 
                                     ,,################,,,,,                         
                               ,,#################################,,                 
                          ,,##########################################,,             
                       ,#########################################, ''#####,          
                    ,#############################################,,   '####,        
                  ,##################################################,,,,####,       
                ,###########''''           ''''###############################       
              ,#####''   ,,,,##########,,,,          '''####'''          '####       
            ,##' ,,,,###########################,,,                        '##       
           ' ,,###''''                  '''############,,,                           
         ,,##''                                '''############,,,,        ,,,,,,###''
      ,#''                                            '''#######################'''  
     '                                                          ''''####''''         
             ,#######,   #######,   ,#######,      ##                                
            ,#'     '#,  ##    ##  ,#'     '#,    #''#        ######   ,####,        
            ##       ##  ##   ,#'  ##            #'  '#       #        #'  '#        
            ##       ##  #######   ##           ,######,      #####,   #    #        
            '#,     ,#'  ##    ##  '#,     ,#' ,#      #,         ##   #,  ,#        
             '#######'   ##     ##  '#######'  #'      '#     #####' # '####'        



                  #######################################################
                  #                        -***-                        #
                  #          Department of theory and spectroscopy      #
                  #    Directorship and core code : Frank Neese         #
                  #        Max Planck Institute fuer Kohlenforschung    #
                  #                Kaiser Wilhelm Platz 1               #
                  #                 D-45470 Muelheim/Ruhr               #
                  #                      Germany                        #
                  #                                                     #
                  #                  All rights reserved                #
                  #                        -***-                        #
                  #######################################################


                         Program Version 5.0.2 -  RELEASE  -


 With contributions from (in alphabetic order):
   Daniel Aravena         : Magnetic Suceptibility
   Michael Atanasov       : Ab Initio Ligand Field Theory (pilot matlab implementation)
   Alexander A. Auer      : GIAO ZORA, VPT2 properties, NMR spectrum
   Ute Becker             : Parallelization
   Giovanni Bistoni       : ED, misc. LED, open-shell LED, HFLD
   Martin Brehm           : Molecular dynamics
   Dmytro Bykov           : SCF Hessian
   Vijay G. Chilkuri      : MRCI spin determinant printing, contributions to CSF-ICE
   Dipayan Datta          : RHF DLPNO-CCSD density
   Achintya Kumar Dutta   : EOM-CC, STEOM-CC
   Dmitry Ganyushin       : Spin-Orbit,Spin-Spin,Magnetic field MRCI
   Miquel Garcia          : C-PCM and meta-GGA Hessian, CC/C-PCM, Gaussian charge scheme
   Yang Guo               : DLPNO-NEVPT2, F12-NEVPT2, CIM, IAO-localization
   Andreas Hansen         : Spin unrestricted coupled pair/coupled cluster methods
   Benjamin Helmich-Paris : MC-RPA, TRAH-SCF, COSX integrals
   Lee Huntington         : MR-EOM, pCC
   Robert Izsak           : Overlap fitted RIJCOSX, COSX-SCS-MP3, EOM
   Marcus Kettner         : VPT2
   Christian Kollmar      : KDIIS, OOCD, Brueckner-CCSD(T), CCSD density, CASPT2, CASPT2-K
   Simone Kossmann        : Meta GGA functionals, TD-DFT gradient, OOMP2, MP2 Hessian
   Martin Krupicka        : Initial AUTO-CI
   Lucas Lang             : DCDCAS
   Marvin Lechner         : AUTO-CI (C++ implementation), FIC-MRCC
   Dagmar Lenk            : GEPOL surface, SMD
   Dimitrios Liakos       : Extrapolation schemes; Compound Job, initial MDCI parallelization
   Dimitrios Manganas     : Further ROCIS development; embedding schemes
   Dimitrios Pantazis     : SARC Basis sets
   Anastasios Papadopoulos: AUTO-CI, single reference methods and gradients
   Taras Petrenko         : DFT Hessian,TD-DFT gradient, ASA, ECA, R-Raman, ABS, FL, XAS/XES, NRVS
   Peter Pinski           : DLPNO-MP2, DLPNO-MP2 Gradient
   Christoph Reimann      : Effective Core Potentials
   Marius Retegan         : Local ZFS, SOC
   Christoph Riplinger    : Optimizer, TS searches, QM/MM, DLPNO-CCSD(T), (RO)-DLPNO pert. Triples
   Tobias Risthaus        : Range-separated hybrids, TD-DFT gradient, RPA, STAB
   Michael Roemelt        : Original ROCIS implementation
   Masaaki Saitow         : Open-shell DLPNO-CCSD energy and density
   Barbara Sandhoefer     : DKH picture change effects
   Avijit Sen             : IP-ROCIS
   Kantharuban Sivalingam : CASSCF convergence, NEVPT2, FIC-MRCI
   Bernardo de Souza      : ESD, SOC TD-DFT
   Georgi Stoychev        : AutoAux, RI-MP2 NMR, DLPNO-MP2 response
   Willem Van den Heuvel  : Paramagnetic NMR
   Boris Wezisla          : Elementary symmetry handling
   Frank Wennmohs         : Technical directorship


 We gratefully acknowledge several colleagues who have allowed us to
 interface, adapt or use parts of their codes:
   Stefan Grimme, W. Hujo, H. Kruse, P. Pracht,  : VdW corrections, initial TS optimization,
                  C. Bannwarth, S. Ehlert          DFT functionals, gCP, sTDA/sTD-DF
   Ed Valeev, F. Pavosevic, A. Kumar             : LibInt (2-el integral package), F12 methods
   Garnet Chan, S. Sharma, J. Yang, R. Olivares  : DMRG
   Ulf Ekstrom                                   : XCFun DFT Library
   Mihaly Kallay                                 : mrcc  (arbitrary order and MRCC methods)
   Jiri Pittner, Ondrej Demel                    : Mk-CCSD
   Frank Weinhold                                : gennbo (NPA and NBO analysis)
   Christopher J. Cramer and Donald G. Truhlar   : smd solvation model
   Lars Goerigk                                  : TD-DFT with DH, B97 family of functionals
   V. Asgeirsson, H. Jonsson                     : NEB implementation
   FAccTs GmbH                                   : IRC, NEB, NEB-TS, DLPNO-Multilevel, CI-OPT
                                                   MM, QMMM, 2- and 3-layer-ONIOM, Crystal-QMMM,
                                                   LR-CPCM, SF, NACMEs, symmetry and pop. for TD-DFT,
                                                   nearIR, NL-DFT gradient (VV10), updates on ESD,
                                                   ML-optimized integration grids
   S Lehtola, MJT Oliveira, MAL Marques          : LibXC Library
   Liviu Ungur et al                             : ANISO software


 Your calculation uses the libint2 library for the computation of 2-el integrals
 For citations please refer to: http://libint.valeyev.net

 Your ORCA version has been built with support for libXC version: 5.1.0
 For citations please refer to: https://tddft.org/programs/libxc/

 This ORCA versions uses:
   CBLAS   interface :  Fast vector & matrix operations
   LAPACKE interface :  Fast linear algebra routines
   SCALAPACK package :  Parallel linear algebra routines
   Shared memory     :  Shared parallel matrices
   BLAS/LAPACK       :  OpenBLAS 0.3.15  USE64BITINT DYNAMIC_ARCH NO_AFFINITY Zen SINGLE_THREADED
        Core in use  :  Zen
   Copyright (c) 2011-2014, The OpenBLAS Project


Your calculation utilizes the SMD solvation module
Please cite in your paper:
A.V. Marenich, C.J. Cramer, D.G. Truhlar J. Phys. Chem. B, 113, (2009), 6378 

================================================================================

----- Orbital basis set information -----
Your calculation utilizes the basis: def2-SVP
   F. Weigend and R. Ahlrichs, Phys. Chem. Chem. Phys. 7, 3297 (2005).

----- AuxJ basis set information -----
Your calculation utilizes the auxiliary basis: def2/J
   F. Weigend, Phys. Chem. Chem. Phys. 8, 1057 (2006).

----- AuxC basis set information -----
Your calculation utilizes the auxiliary basis: def2-SVP/C
  H-La, Hf-Rn : A. Hellweg, C. Hattig, S. Hofener and W. Klopper, Theor. Chem. Acc. 117, 587 (2007).
        Ce-Lu : J. Chmela and M. E. Harding, Mol. Phys. (2018).

================================================================================
                                        WARNINGS
                       Please study these warnings very carefully!
================================================================================

INFO   : Checking CIS options ...
  ===> : (D) CORRECTION FOUND - SETTING MODE=3
  ===> : JK MODE FOUND - ACTIVATING RI-MP2 CODE
  ===> : MP2 AND CIS FOUND - CHECKING
WARNING: CIS(D) and MP2 runs must have the same orbital window
  ===> : adjusting orbital windows

WARNING: No MP2 level density has been requested!
         To caclulate MP2 level properties use
         %mp2 Density relaxed end
         or
         %mp2 Density unrelaxed end
         Otherwise for double-hybrid DFT only the energy is correct!

WARNING: The frozen-core approximation is turned on by default for 
         the MP2 part of double-hybrid DFT.

WARNING: CIS/ROCIS methods need fully converged wavefunctions
  ===> : Setting SCFConvForced true
         You can overwrite this default with %scf ConvForced false 


INFO   : the flag for use of the SHARK integral package has been found!

================================================================================
                                       INPUT FILE
================================================================================
NAME = Cu50_XantPhos-dmbp.inp
|  1> %maxcore 26000
|  2> %pal
|  3>  nprocs= 8
|  4> end
|  5> ! RI-B2GP-PLYP  def2-SVP def2/J def2-SVP/C RIJCOSX CPCM TIGHTSCF
|  6> 
|  7> %TDDFT 
|  8>     DCORR      4
|  9>     NROOTS    40
| 10>     TDA       FALSE
| 11> END
| 12> 
| 13> %CPCM
| 14>     SMD		TRUE
| 15>     SMDsolvent	"CH2Cl2"
| 16> END
| 17> 
| 18> * xyz 1 1
| 19> P                   1.15653200    0.85817700    1.66642400
| 20> P                   0.00802600   -1.81067000   -0.84647500
| 21> O                   2.28029400   -0.07925400   -0.85943500
| 22> C                   2.18357000   -0.36536700    2.55862700
| 23> C                   1.62348100   -0.98500900    3.68834300
| 24> H                   0.61974900   -0.70279800    4.02439100
| 25> C                   2.33937700   -1.94843000    4.39348800
| 26> H                   1.89667900   -2.41281200    5.27822700
| 27> C                   3.61496500   -2.32477600    3.96732800
| 28> H                   4.17444600   -3.08619500    4.51630500
| 29> C                   4.16912300   -1.72874500    2.83574900
| 30> H                   5.16523400   -2.02090600    2.49395100
| 31> C                   3.46172600   -0.74978100    2.13588300
| 32> H                   3.91913400   -0.28083500    1.26043600
| 33> C                   2.32365100    1.78461000    0.59343600
| 34> C                   2.73537600    3.10250600    0.83351000
| 35> H                   2.44761800    3.60300100    1.76110300
| 36> C                   3.48813700    3.79090100   -0.11631900
| 37> H                   3.79610800    4.81969800    0.08218100
| 38> C                   3.84940000    3.18024300   -1.31809900
| 39> H                   4.43851500    3.73975700   -2.04771600
| 40> C                   3.47332600    1.86246700   -1.59139900
| 41> C                   3.86947700    1.07636500   -2.83758800
| 42> C                   2.68013000    0.19692300   -3.20751700
| 43> C                   2.28463900   -0.12950400   -4.50846300
| 44> H                   2.81278100    0.30280300   -5.36097900
| 45> C                   1.22868700   -1.01461700   -4.73435200
| 46> H                   0.94221100   -1.26372400   -5.75837400
| 47> C                   0.53874300   -1.58805700   -3.66659100
| 48> H                  -0.28860900   -2.27687400   -3.85692200
| 49> C                   0.89225300   -1.26987200   -2.35012900
| 50> C                  -1.39736400   -2.79040900   -1.48091400
| 51> C                  -2.51895100   -2.07657300   -1.93432200
| 52> H                  -2.49853600   -0.98097100   -1.92899300
| 53> C                  -3.64904300   -2.74879400   -2.39231800
| 54> H                  -4.51396000   -2.18055100   -2.74386900
| 55> C                  -3.67778500   -4.14510000   -2.39104000
| 56> H                  -4.56691700   -4.67487300   -2.74116800
| 57> C                  -2.56985200   -4.86178300   -1.93960300
| 58> H                  -2.58794200   -5.95433300   -1.93915400
| 59> C                  -1.43249500   -4.19074800   -1.48780300
| 60> H                  -0.56980400   -4.76457800   -1.13778400
| 61> C                   1.12775700   -3.04030400   -0.08910100
| 62> C                   0.81553000   -3.49824700    1.20004800
| 63> H                  -0.07008600   -3.10962100    1.71479900
| 64> C                   1.62007300   -4.44646600    1.82749400
| 65> H                   1.36319800   -4.79848100    2.82971300
| 66> C                   2.75932300   -4.93272200    1.18376500
| 67> H                   3.39641600   -5.66905500    1.67984700
| 68> C                   3.08635700   -4.46979500   -0.09035000
| 69> H                   3.97868700   -4.84488400   -0.59748800
| 70> C                   2.27371400   -3.53174000   -0.72783400
| 71> H                   2.53554300   -3.18595700   -1.73206000
| 72> C                   1.96145400   -0.38412700   -2.16080600
| 73> C                   2.71327600    1.20147200   -0.62133000
| 74> C                   4.28952600    1.98573300   -3.98246100
| 75> H                   3.48369100    2.66909500   -4.28786800
| 76> H                   4.58794500    1.39763400   -4.86032800
| 77> H                   5.16256800    2.59100300   -3.70475800
| 78> C                   5.04613800    0.15255600   -2.46737300
| 79> H                   5.34466800   -0.45683600   -3.33297400
| 80> H                   4.78865700   -0.53430200   -1.64736500
| 81> H                   5.91703900    0.74455800   -2.14975600
| 82> C                   0.72626100    2.07767700    2.96022300
| 83> C                   1.57535200    2.37665700    4.03606600
| 84> H                   2.53521200    1.86110000    4.13647700
| 85> C                   1.20405900    3.33442400    4.97769100
| 86> H                   1.87104100    3.56065900    5.81308300
| 87> C                  -0.01390600    4.00599600    4.85311600
| 88> H                  -0.30233200    4.75561900    5.59393200
| 89> C                  -0.86324200    3.71581200    3.78568300
| 90> H                  -1.81932900    4.23524900    3.68735700
| 91> C                  -0.49725400    2.75221100    2.84603200
| 92> H                  -1.16760600    2.51318300    2.01320900
| 93> Cu                 -0.56304600    0.03999100    0.42417400
| 94> C                  -3.45491400    0.63111800    0.31227000
| 95> C                  -4.83182800    0.45955400    0.40087400
| 96> C                  -5.35034200   -0.56889000    1.20017000
| 97> C                  -4.45077600   -1.38977400    1.89648300
| 98> C                  -3.09328200   -1.13979800    1.74862200
| 99> C                  -2.83812200    1.67338600   -0.54046200
|100> C                  -3.57770500    2.68893300   -1.13620400
|101> C                  -2.92761300    3.63744300   -1.93862100
|102> C                  -1.53998400    3.52661200   -2.11153700
|103> C                  -0.88592800    2.48075200   -1.47439300
|104> H                  -5.52567300    1.09332300   -0.15159400
|105> H                  -4.78503700   -2.20540200    2.53684800
|106> H                  -2.36494400   -1.76337400    2.27741100
|107> H                  -4.65433000    2.77776300   -0.98964100
|108> H                  -0.97241000    4.22924200   -2.72077200
|109> H                   0.19843000    2.36779100   -1.58747000
|110> N                  -2.59106400   -0.16773400    0.98210900
|111> N                  -1.49890400    1.57388600   -0.70887900
|112> O                  -3.68870700    4.58863000   -2.48270700
|113> O                  -6.67830900   -0.69370900    1.23323000
|114> C                  -3.06538700    5.56519900   -3.30163800
|115> H                  -3.85957900    6.23621900   -3.64254100
|116> H                  -2.32129500    6.14629700   -2.73709000
|117> H                  -2.58278300    5.10595700   -4.17707000
|118> C                  -7.23965100   -1.74013000    2.00937500
|119> H                  -8.32476800   -1.66707400    1.88866700
|120> H                  -6.90394300   -2.72610400    1.65509300
|121> H                  -6.98891200   -1.63009600    3.07483000
|122> *
|123> 
|124>                          ****END OF INPUT****
================================================================================

                       ****************************
                       * Single Point Calculation *
                       ****************************

---------------------------------
CARTESIAN COORDINATES (ANGSTROEM)
---------------------------------
  P      1.156532    0.858177    1.666424
  P      0.008026   -1.810670   -0.846475
  O      2.280294   -0.079254   -0.859435
  C      2.183570   -0.365367    2.558627
  C      1.623481   -0.985009    3.688343
  H      0.619749   -0.702798    4.024391
  C      2.339377   -1.948430    4.393488
  H      1.896679   -2.412812    5.278227
  C      3.614965   -2.324776    3.967328
  H      4.174446   -3.086195    4.516305
  C      4.169123   -1.728745    2.835749
  H      5.165234   -2.020906    2.493951
  C      3.461726   -0.749781    2.135883
  H      3.919134   -0.280835    1.260436
  C      2.323651    1.784610    0.593436
  C      2.735376    3.102506    0.833510
  H      2.447618    3.603001    1.761103
  C      3.488137    3.790901   -0.116319
  H      3.796108    4.819698    0.082181
  C      3.849400    3.180243   -1.318099
  H      4.438515    3.739757   -2.047716
  C      3.473326    1.862467   -1.591399
  C      3.869477    1.076365   -2.837588
  C      2.680130    0.196923   -3.207517
  C      2.284639   -0.129504   -4.508463
  H      2.812781    0.302803   -5.360979
  C      1.228687   -1.014617   -4.734352
  H      0.942211   -1.263724   -5.758374
  C      0.538743   -1.588057   -3.666591
  H     -0.288609   -2.276874   -3.856922
  C      0.892253   -1.269872   -2.350129
  C     -1.397364   -2.790409   -1.480914
  C     -2.518951   -2.076573   -1.934322
  H     -2.498536   -0.980971   -1.928993
  C     -3.649043   -2.748794   -2.392318
  H     -4.513960   -2.180551   -2.743869
  C     -3.677785   -4.145100   -2.391040
  H     -4.566917   -4.674873   -2.741168
  C     -2.569852   -4.861783   -1.939603
  H     -2.587942   -5.954333   -1.939154
  C     -1.432495   -4.190748   -1.487803
  H     -0.569804   -4.764578   -1.137784
  C      1.127757   -3.040304   -0.089101
  C      0.815530   -3.498247    1.200048
  H     -0.070086   -3.109621    1.714799
  C      1.620073   -4.446466    1.827494
  H      1.363198   -4.798481    2.829713
  C      2.759323   -4.932722    1.183765
  H      3.396416   -5.669055    1.679847
  C      3.086357   -4.469795   -0.090350
  H      3.978687   -4.844884   -0.597488
  C      2.273714   -3.531740   -0.727834
  H      2.535543   -3.185957   -1.732060
  C      1.961454   -0.384127   -2.160806
  C      2.713276    1.201472   -0.621330
  C      4.289526    1.985733   -3.982461
  H      3.483691    2.669095   -4.287868
  H      4.587945    1.397634   -4.860328
  H      5.162568    2.591003   -3.704758
  C      5.046138    0.152556   -2.467373
  H      5.344668   -0.456836   -3.332974
  H      4.788657   -0.534302   -1.647365
  H      5.917039    0.744558   -2.149756
  C      0.726261    2.077677    2.960223
  C      1.575352    2.376657    4.036066
  H      2.535212    1.861100    4.136477
  C      1.204059    3.334424    4.977691
  H      1.871041    3.560659    5.813083
  C     -0.013906    4.005996    4.853116
  H     -0.302332    4.755619    5.593932
  C     -0.863242    3.715812    3.785683
  H     -1.819329    4.235249    3.687357
  C     -0.497254    2.752211    2.846032
  H     -1.167606    2.513183    2.013209
  Cu    -0.563046    0.039991    0.424174
  C     -3.454914    0.631118    0.312270
  C     -4.831828    0.459554    0.400874
  C     -5.350342   -0.568890    1.200170
  C     -4.450776   -1.389774    1.896483
  C     -3.093282   -1.139798    1.748622
  C     -2.838122    1.673386   -0.540462
  C     -3.577705    2.688933   -1.136204
  C     -2.927613    3.637443   -1.938621
  C     -1.539984    3.526612   -2.111537
  C     -0.885928    2.480752   -1.474393
  H     -5.525673    1.093323   -0.151594
  H     -4.785037   -2.205402    2.536848
  H     -2.364944   -1.763374    2.277411
  H     -4.654330    2.777763   -0.989641
  H     -0.972410    4.229242   -2.720772
  H      0.198430    2.367791   -1.587470
  N     -2.591064   -0.167734    0.982109
  N     -1.498904    1.573886   -0.708879
  O     -3.688707    4.588630   -2.482707
  O     -6.678309   -0.693709    1.233230
  C     -3.065387    5.565199   -3.301638
  H     -3.859579    6.236219   -3.642541
  H     -2.321295    6.146297   -2.737090
  H     -2.582783    5.105957   -4.177070
  C     -7.239651   -1.740130    2.009375
  H     -8.324768   -1.667074    1.888667
  H     -6.903943   -2.726104    1.655093
  H     -6.988912   -1.630096    3.074830

----------------------------
CARTESIAN COORDINATES (A.U.)
----------------------------
  NO LB      ZA    FRAG     MASS         X           Y           Z
   0 P    15.0000    0    30.974    2.185529    1.621720    3.149085
   1 P    15.0000    0    30.974    0.015167   -3.421670   -1.599606
   2 O     8.0000    0    15.999    4.309131   -0.149768   -1.624097
   3 C     6.0000    0    12.011    4.126349   -0.690444    4.835104
   4 C     6.0000    0    12.011    3.067934   -1.861397    6.969958
   5 H     1.0000    0     1.008    1.171156   -1.328096    7.604997
   6 C     6.0000    0    12.011    4.420782   -3.681999    8.302489
   7 H     1.0000    0     1.008    3.584204   -4.559554    9.974404
   8 C     6.0000    0    12.011    6.831294   -4.393190    7.497163
   9 H     1.0000    0     1.008    7.888560   -5.832063    8.534580
  10 C     6.0000    0    12.011    7.878501   -3.266855    5.358789
  11 H     1.0000    0     1.008    9.760878   -3.818959    4.712884
  12 C     6.0000    0    12.011    6.541714   -1.416881    4.036234
  13 H     1.0000    0     1.008    7.406090   -0.530701    2.381879
  14 C     6.0000    0    12.011    4.391064    3.372424    1.121432
  15 C     6.0000    0    12.011    5.169112    5.862887    1.575106
  16 H     1.0000    0     1.008    4.625328    6.808685    3.328002
  17 C     6.0000    0    12.011    6.591624    7.163765   -0.219811
  18 H     1.0000    0     1.008    7.173604    9.107909    0.155300
  19 C     6.0000    0    12.011    7.274312    6.009788   -2.490846
  20 H     1.0000    0     1.008    8.387578    7.067117   -3.869622
  21 C     6.0000    0    12.011    6.563635    3.519553   -3.007308
  22 C     6.0000    0    12.011    7.312252    2.034035   -5.362264
  23 C     6.0000    0    12.011    5.064712    0.372131   -6.061329
  24 C     6.0000    0    12.011    4.317342   -0.244727   -8.519760
  25 H     1.0000    0     1.008    5.315386    0.572215  -10.130782
  26 C     6.0000    0    12.011    2.321882   -1.917348   -8.946629
  27 H     1.0000    0     1.008    1.780521   -2.388092  -10.881750
  28 C     6.0000    0    12.011    1.018077   -3.000993   -6.928853
  29 H     1.0000    0     1.008   -0.545392   -4.302668   -7.288526
  30 C     6.0000    0    12.011    1.686114   -2.399710   -4.441100
  31 C     6.0000    0    12.011   -2.640635   -5.273109   -2.798522
  32 C     6.0000    0    12.011   -4.760128   -3.924154   -3.655339
  33 H     1.0000    0     1.008   -4.721549   -1.853767   -3.645268
  34 C     6.0000    0    12.011   -6.895692   -5.194468   -4.520826
  35 H     1.0000    0     1.008   -8.530148   -4.120644   -5.185161
  36 C     6.0000    0    12.011   -6.950006   -7.833104   -4.518411
  37 H     1.0000    0     1.008   -8.630222   -8.834230   -5.180057
  38 C     6.0000    0    12.011   -4.856316   -9.187438   -3.665318
  39 H     1.0000    0     1.008   -4.890502  -11.252059   -3.664470
  40 C     6.0000    0    12.011   -2.707023   -7.919366   -2.811540
  41 H     1.0000    0     1.008   -1.076774   -9.003748   -2.150100
  42 C     6.0000    0    12.011    2.131152   -5.745342   -0.168376
  43 C     6.0000    0    12.011    1.541128   -6.610729    2.267762
  44 H     1.0000    0     1.008   -0.132443   -5.876332    3.240500
  45 C     6.0000    0    12.011    3.061494   -8.402603    3.453463
  46 H     1.0000    0     1.008    2.576071   -9.067815    5.347383
  47 C     6.0000    0    12.011    5.214365   -9.321494    2.236992
  48 H     1.0000    0     1.008    6.418296  -10.712961    3.174451
  49 C     6.0000    0    12.011    5.832369   -8.446688   -0.170737
  50 H     1.0000    0     1.008    7.518629   -9.155504   -1.129089
  51 C     6.0000    0    12.011    4.296697   -6.674021   -1.375407
  52 H     1.0000    0     1.008    4.791482   -6.020586   -3.273119
  53 C     6.0000    0    12.011    3.706611   -0.725895   -4.083332
  54 C     6.0000    0    12.011    5.127349    2.270453   -1.174144
  55 C     6.0000    0    12.011    8.106029    3.752492   -7.525761
  56 H     1.0000    0     1.008    6.583222    5.043859   -8.102896
  57 H     1.0000    0     1.008    8.669960    2.641145   -9.184689
  58 H     1.0000    0     1.008    9.755840    4.896286   -7.000978
  59 C     6.0000    0    12.011    9.535819    0.288289   -4.662659
  60 H     1.0000    0     1.008   10.099959   -0.863295   -6.298408
  61 H     1.0000    0     1.008    9.049250   -1.009684   -3.113069
  62 H     1.0000    0     1.008   11.181583    1.407011   -4.062450
  63 C     6.0000    0    12.011    1.372434    3.926241    5.594011
  64 C     6.0000    0    12.011    2.976984    4.491231    7.627059
  65 H     1.0000    0     1.008    4.790856    3.516969    7.816809
  66 C     6.0000    0    12.011    2.275342    6.301148    9.406473
  67 H     1.0000    0     1.008    3.535755    6.728670   10.985135
  68 C     6.0000    0    12.011   -0.026279    7.570235    9.171060
  69 H     1.0000    0     1.008   -0.571325    8.986818   10.570999
  70 C     6.0000    0    12.011   -1.631291    7.021867    7.153904
  71 H     1.0000    0     1.008   -3.438034    8.003461    6.968095
  72 C     6.0000    0    12.011   -0.939674    5.200925    5.378221
  73 H     1.0000    0     1.008   -2.206456    4.749228    3.804414
  74 Cu   29.0000    0    63.550   -1.064003    0.075572    0.801573
  75 C     6.0000    0    12.011   -6.528841    1.192640    0.590105
  76 C     6.0000    0    12.011   -9.130832    0.868431    0.757542
  77 C     6.0000    0    12.011  -10.110681   -1.075046    2.267993
  78 C     6.0000    0    12.011   -8.410748   -2.626292    3.583833
  79 C     6.0000    0    12.011   -5.845456   -2.153906    3.304417
  80 C     6.0000    0    12.011   -5.363273    3.162241   -1.021325
  81 C     6.0000    0    12.011   -6.760883    5.081347   -2.147114
  82 C     6.0000    0    12.011   -5.532387    6.873771   -3.663463
  83 C     6.0000    0    12.011   -2.910148    6.664331   -3.990227
  84 C     6.0000    0    12.011   -1.674161    4.687942   -2.786199
  85 H     1.0000    0     1.008  -10.442009    2.066081   -0.286471
  86 H     1.0000    0     1.008   -9.042409   -4.167606    4.793948
  87 H     1.0000    0     1.008   -4.469096   -3.332294    4.303683
  88 H     1.0000    0     1.008   -8.795409    5.249211   -1.870150
  89 H     1.0000    0     1.008   -1.837589    7.992109   -5.141514
  90 H     1.0000    0     1.008    0.374978    4.474477   -2.999884
  91 N     7.0000    0    14.007   -4.896401   -0.316971    1.855917
  92 N     7.0000    0    14.007   -2.832518    2.974214   -1.339587
  93 O     8.0000    0    15.999   -6.970646    8.671254   -4.691636
  94 O     8.0000    0    15.999  -12.620175   -1.310920    2.330467
  95 C     6.0000    0    12.011   -5.792742   10.516702   -6.239192
  96 H     1.0000    0     1.008   -7.293547   11.784746   -6.883405
  97 H     1.0000    0     1.008   -4.386612   11.614818   -5.172351
  98 H     1.0000    0     1.008   -4.880753    9.648860   -7.893518
  99 C     6.0000    0    12.011  -13.680958   -3.288369    3.797168
 100 H     1.0000    0     1.008  -15.731532   -3.150313    3.569063
 101 H     1.0000    0     1.008  -13.046562   -5.151590    3.127672
 102 H     1.0000    0     1.008  -13.207130   -3.080435    5.810587

--------------------------------
INTERNAL COORDINATES (ANGSTROEM)
--------------------------------
 P      0   0   0     0.000000000000     0.00000000     0.00000000
 P      1   0   0     3.841415328449     0.00000000     0.00000000
 O      2   1   0     2.856776363400    49.01109160     0.00000000
 C      1   2   3     1.829724888225    91.27276974   271.85259960
 C      4   1   2     1.404960546329   117.59676807   264.16268162
 H      5   4   1     1.095467587220   119.88846615   357.87829900
 C      5   4   1     1.392090721570   120.49878227   178.45875955
 H      7   5   4     1.092883918469   119.72390467   179.19395097
 C      7   5   4     1.396557697720   120.10881666   358.84548817
 H      9   7   5     1.092773366006   120.13932866   180.44156202
 C      9   7   5     1.393849014480   119.71158766     0.19092205
 H     11   9   7     1.092895716455   120.12913854   180.23807404
 C     11   9   7     1.395920286714   120.36060504     0.64356294
 H     13  11   9     1.093407462563   119.35419300   178.95753518
 C      1   2   3     1.836232041926    99.10852539    17.66955684
 C     15   1   2     1.401428866521   124.13115112   159.27339899
 H     16  15   1     1.092578914879   119.92347901     6.85338336
 C     16  15   1     1.393812013288   120.42327020   188.16898317
 H     18  16  15     1.092095075554   119.58442252   179.59951115
 C     18  16  15     1.395596401734   120.69824235   359.73150731
 H     20  18  16     1.091995130992   119.39409550   179.93008510
 C     20  18  16     1.397375443341   120.75635122   359.51228941
 C     22  20  18     1.525738835098   125.15189107   183.14514408
 C     23  22  20     1.524733413687   107.02611976   215.96962453
 C     24  23  22     1.398366265442   125.51880887   144.88386029
 H     25  24  23     1.092065403110   119.80659691   356.52633621
 C     25  24  23     1.396239767874   120.82300343   175.85841202
 H     27  25  24     1.092128130079   119.64796026   180.60110970
 C     27  25  24     1.394621708513   120.72631510     0.36446139
 H     29  27  25     1.093254810625   120.01107888   179.78032747
 C     29  27  25     1.399743980794   120.11013984     0.61260095
 C      2   1   3     1.826888722649   146.07455908   201.82668150
 C     32   2   1     1.404670085084   116.98833354    55.77247173
 H     33  32   2     1.095805143659   119.44896430     2.32670929
 C     33  32   2     1.392389793600   120.58952535   182.11298641
 H     35  33  32     1.092963690860   119.80647493   180.10740988
 C     35  33  32     1.396602370571   119.93927445     0.61728485
 H     37  35  33     1.092613729246   120.08066366   179.42797234
 C     37  35  33     1.394613000064   119.85003008   359.54117986
 H     39  37  35     1.092699845429   120.05321881   180.13027399
 C     39  37  35     1.395704895984   120.33779057     0.05686418
 H     41  39  37     1.093631533352   119.61380831   180.09071082
 C      2   1   3     1.827405992710    90.75486658    83.43317700
 C     43   2   1     1.403247175297   117.64612076    69.24902293
 H     44  43   2     1.095588636000   119.71829359   359.52926788
 C     44  43   2     1.392873717796   120.49640930   179.28440292
 H     46  44  43     1.092859666110   119.77645688   180.29725209
 C     46  44  43     1.395966505858   120.05258602     1.06774480
 H     48  46  44     1.092781372582   120.07675337   179.37423083
 C     48  46  44     1.394496926390   119.80720540   359.77880090
 H     50  48  46     1.092764173033   120.10457511   179.81495770
 C     50  48  46     1.395249683293   120.26835577   359.46308668
 H     52  50  48     1.093887639297   119.50898475   180.71907715
 C      3   2   1     1.374108063935    71.65537101   207.31020684
 C      3   2   1     1.372744146017   144.64064814   317.30009931
 C     23  22  20     1.521225002409   112.23491870   339.46058676
 H     56  23  22     1.099830489629   112.21583414   299.85888627
 H     56  23  22     1.097982150607   110.89070378   178.91446951
 H     56  23  22     1.098031448945   111.02197260    60.92492087
 C     23  22  20     1.541107823492   108.11239463    99.91741643
 H     60  23  22     1.099883567367   110.50565569   178.29469366
 H     60  23  22     1.100219749681   111.99890964    58.20448382
 H     60  23  22     1.099916123390   110.56541116   297.92807446
 C      1   2   3     1.829270137471   148.81642573   152.72782323
 C     64   1   2     1.402776791699   122.83020649   147.49632731
 H     65  64   1     1.094172111128   120.06269759   359.04940932
 C     65  64   1     1.393496953266   120.22870944   178.76732832
 H     67  65  64     1.092669692640   119.75457658   179.95126133
 C     67  65  64     1.396412053455   120.17629030   359.76877766
 H     69  67  65     1.092672204031   119.97923793   179.93257065
 C     69  67  65     1.394629558069   119.95987969     0.15873208
 H     71  69  67     1.092513226837   120.19287574   179.68546027
 C     71  69  67     1.394782458001   119.97234813     0.20108898
 H     73  71  69     1.095490911882   120.15443948   179.25265258
 Cu     1   2   3     2.273667058120    33.53604384   130.43094221
 C     34  33  32     2.921771664243   123.31766527   268.10238932
 C     76  34  33     1.390387369875   107.75562244   292.84837894
 C     77  76  34     1.401937204353   119.54608787    90.22622292
 C     78  77  76     1.402826191579   118.36549467     0.46493116
 C     79  78  77     1.388214981886   117.95789845   359.69828453
 C     76  34  33     1.481184262309    79.06616726   172.10142837
 C     81  76  34     1.390405427802   122.62450198   115.09322318
 C     82  81  76     1.402199654276   119.51523690   180.40929461
 C     83  82  81     1.402746482889   118.40639507   359.93135714
 C     84  83  82     1.388367698944   117.96733213   359.91926946
 H     77  76  34     1.090093996135   121.75553054   271.42505244
 H     79  78  77     1.089516766154   122.21289713   179.85204098
 H     80  79  78     1.094961678115   119.76641823   180.09047968
 H     82  81  76     1.090180201845   121.81757946     1.05552966
 H     84  83  82     1.089493665700   122.22966523   180.04209371
 H     85  84  83     1.096074298400   119.75895094   180.14421424
 N     80  79  78     1.335916733479   124.03886141   359.85390247
 N     85  84  83     1.335723475398   123.93545725     0.09043940
 O     83  82  81     1.334185279937   116.81763970   180.05234373
 O     78  77  76     1.334229777606   116.79980264   180.75660472
 C     94  83  82     1.418753966311   118.39186746   180.04646450
 H     96  94  83     1.094177146843   106.44385443   179.79176754
 H     96  94  83     1.100028287987   111.38075084   298.58161256
 H     96  94  83     1.100086824757   111.39098126    61.02651031
 C     95  78  77     1.418627086739   118.45048990   178.73217941
 H    100  95  78     1.094251572578   106.42689578   180.58234286
 H    100  95  78     1.100163772110   111.35471927   299.34716483
 H    100  95  78     1.100078126454   111.46422661    61.80983508

---------------------------
INTERNAL COORDINATES (A.U.)
---------------------------
 P      0   0   0     0.000000000000     0.00000000     0.00000000
 P      1   0   0     7.259222937417     0.00000000     0.00000000
 O      2   1   0     5.398524952685    49.01109160     0.00000000
 C      1   2   3     3.457678939164    91.27276974   271.85259960
 C      4   1   2     2.654990661526   117.59676807   264.16268162
 H      5   4   1     2.070133728433   119.88846615   357.87829900
 C      5   4   1     2.630670217341   120.49878227   178.45875955
 H      7   5   4     2.065251302074   119.72390467   179.19395097
 C      7   5   4     2.639111578910   120.10881666   358.84548817
 H      9   7   5     2.065042388194   120.13932866   180.44156202
 C      9   7   5     2.633992909403   119.71158766     0.19092205
 H     11   9   7     2.065273597036   120.12913854   180.23807404
 C     11   9   7     2.637907046675   120.36060504     0.64356294
 H     13  11   9     2.066240657030   119.35419300   178.95753518
 C      1   2   3     3.469975677570    99.10852539    17.66955684
 C     15   1   2     2.648316753895   124.13115112   159.27339899
 H     16  15   1     2.064674928818   119.92347901     6.85338336
 C     16  15   1     2.633922987284   120.42327020   188.16898317
 H     18  16  15     2.063760605002   119.58442252   179.59951115
 C     18  16  15     2.637294992763   120.69824235   359.73150731
 H     20  18  16     2.063571737150   119.39409550   179.93008510
 C     20  18  16     2.640656894181   120.75635122   359.51228941
 C     22  20  18     2.883228550223   125.15189107   183.14514408
 C     23  22  20     2.881328579108   107.02611976   215.96962453
 C     24  23  22     2.642529276599   125.51880887   144.88386029
 H     25  24  23     2.063704532208   119.80659691   356.52633621
 C     25  24  23     2.638510778572   120.82300343   175.85841202
 H     27  25  24     2.063823069000   119.64796026   180.60110970
 C     27  25  24     2.635453089512   120.72631510     0.36446139
 H     29  27  25     2.065952186673   120.01107888   179.78032747
 C     29  27  25     2.645132781305   120.11013984     0.61260095
 C      2   1   3     3.452319362956   146.07455908   201.82668150
 C     32   2   1     2.654441769320   116.98833354    55.77247173
 H     33  32   2     2.070771617658   119.44896430     2.32670929
 C     33  32   2     2.631235381571   120.58952535   182.11298641
 H     35  33  32     2.065402050046   119.80647493   180.10740988
 C     35  33  32     2.639195998364   119.93927445     0.61728485
 H     37  35  33     2.064740718437   120.08066366   179.42797234
 C     37  35  33     2.635436632927   119.85003008   359.54117986
 H     39  37  35     2.064903454439   120.05321881   180.13027399
 C     39  37  35     2.637500017183   120.33779057     0.05686418
 H     41  39  37     2.066664089456   119.61380831   180.09071082
 C      2   1   3     3.453296861709    90.75486658    83.43317700
 C     43   2   1     2.651752859510   117.64612076    69.24902293
 H     44  43   2     2.070362477477   119.71829359   359.52926788
 C     44  43   2     2.632149865771   120.49640930   179.28440292
 H     46  44  43     2.065205471757   119.77645688   180.29725209
 C     46  44  43     2.637994388198   120.05258602     1.06774480
 H     48  46  44     2.065057518430   120.07675337   179.37423083
 C     48  46  44     2.635217285471   119.80720540   359.77880090
 H     50  48  46     2.065025015994   120.10457511   179.81495770
 C     50  48  46     2.636639789865   120.26835577   359.46308668
 H     52  50  48     2.067148059552   119.50898475   180.71907715
 C      3   2   1     2.596687919249    71.65537101   207.31020684
 C      3   2   1     2.594110487916   144.64064814   317.30009931
 C     23  22  20     2.874698642627   112.23491870   339.46058676
 H     56  23  22     2.078378419136   112.21583414   299.85888627
 H     56  23  22     2.074885564581   110.89070378   178.91446951
 H     56  23  22     2.074978724939   111.02197260    60.92492087
 C     23  22  20     2.912271729243   108.11239463    99.91741643
 H     60  23  22     2.078478721525   110.50565569   178.29469366
 H     60  23  22     2.079114014029   111.99890964    58.20448382
 H     60  23  22     2.078540243492   110.56541116   297.92807446
 C      1   2   3     3.456819584780   148.81642573   152.72782323
 C     64   1   2     2.650863963332   122.83020649   147.49632731
 H     65  64   1     2.067685633406   120.06269759   359.04940932
 C     65  64   1     2.633327610127   120.22870944   178.76732832
 H     67  65  64     2.064846473925   119.75457658   179.95126133
 C     67  65  64     2.638836351136   120.17629030   359.76877766
 H     69  67  65     2.064851219766   119.97923793   179.93257065
 C     69  67  65     2.635467923023   119.95987969     0.15873208
 H     71  69  67     2.064550796409   120.19287574   179.68546027
 C     71  69  67     2.635756862019   119.97234813     0.20108898
 H     73  71  69     2.070177805657   120.15443948   179.25265258
 Cu     1   2   3     4.296608059565    33.53604384   130.43094221
 C     34  33  32     5.521348271271   123.31766527   268.10238932
 C     76  34  33     2.627451349127   107.75562244   292.84837894
 C     77  76  34     2.649277373182   119.54608787    90.22622292
 C     78  77  76     2.650957315577   118.36549467     0.46493116
 C     79  78  77     2.623346130771   117.95789845   359.69828453
 C     76  34  33     2.799032609638    79.06616726   172.10142837
 C     81  76  34     2.627485473664   122.62450198   115.09322318
 C     82  81  76     2.649773331662   119.51523690   180.40929461
 C     83  82  81     2.650806687982   118.40639507   359.93135714
 C     84  83  82     2.623634724187   117.96733213   359.91926946
 H     77  76  34     2.059979112927   121.75553054   271.42505244
 H     79  78  77     2.058888306346   122.21289713   179.85204098
 H     80  79  78     2.069177698777   119.76641823   180.09047968
 H     82  81  76     2.060142018109   121.81757946     1.05552966
 H     84  83  82     2.058844652815   122.22966523   180.04209371
 H     85  84  83     2.071280246407   119.75895094   180.14421424
 N     80  79  78     2.524516763998   124.03886141   359.85390247
 N     85  84  83     2.524151559151   123.93545725     0.09043940
 O     83  82  81     2.521244790990   116.81763970   180.05234373
 O     78  77  76     2.521328879398   116.79980264   180.75660472
 C     94  83  82     2.681056447742   118.39186746   180.04646450
 H     96  94  83     2.067695149528   106.44385443   179.79176754
 H     96  94  83     2.078752203862   111.38075084   298.58161256
 H     96  94  83     2.078862822326   111.39098126    61.02651031
 C     95  78  77     2.680816680100   118.45048990   178.73217941
 H    100  95  78     2.067835793785   106.42689578   180.58234286
 H    100  95  78     2.079008231750   111.35471927   299.34716483
 H    100  95  78     2.078846384915   111.46422661    61.80983508

---------------------
BASIS SET INFORMATION
---------------------
There are 6 groups of distinct atoms

 Group   1 Type P   : 10s7p1d contracted to 4s3p1d pattern {5311/511/1}
 Group   2 Type O   : 7s4p1d contracted to 3s2p1d pattern {511/31/1}
 Group   3 Type C   : 7s4p1d contracted to 3s2p1d pattern {511/31/1}
 Group   4 Type H   : 4s1p contracted to 2s1p pattern {31/1}
 Group   5 Type Cu  : 14s9p5d1f contracted to 5s3p2d1f pattern {63311/531/41/1}
 Group   6 Type N   : 7s4p1d contracted to 3s2p1d pattern {511/31/1}

Atom   0P    basis set group =>   1
Atom   1P    basis set group =>   1
Atom   2O    basis set group =>   2
Atom   3C    basis set group =>   3
Atom   4C    basis set group =>   3
Atom   5H    basis set group =>   4
Atom   6C    basis set group =>   3
Atom   7H    basis set group =>   4
Atom   8C    basis set group =>   3
Atom   9H    basis set group =>   4
Atom  10C    basis set group =>   3
Atom  11H    basis set group =>   4
Atom  12C    basis set group =>   3
Atom  13H    basis set group =>   4
Atom  14C    basis set group =>   3
Atom  15C    basis set group =>   3
Atom  16H    basis set group =>   4
Atom  17C    basis set group =>   3
Atom  18H    basis set group =>   4
Atom  19C    basis set group =>   3
Atom  20H    basis set group =>   4
Atom  21C    basis set group =>   3
Atom  22C    basis set group =>   3
Atom  23C    basis set group =>   3
Atom  24C    basis set group =>   3
Atom  25H    basis set group =>   4
Atom  26C    basis set group =>   3
Atom  27H    basis set group =>   4
Atom  28C    basis set group =>   3
Atom  29H    basis set group =>   4
Atom  30C    basis set group =>   3
Atom  31C    basis set group =>   3
Atom  32C    basis set group =>   3
Atom  33H    basis set group =>   4
Atom  34C    basis set group =>   3
Atom  35H    basis set group =>   4
Atom  36C    basis set group =>   3
Atom  37H    basis set group =>   4
Atom  38C    basis set group =>   3
Atom  39H    basis set group =>   4
Atom  40C    basis set group =>   3
Atom  41H    basis set group =>   4
Atom  42C    basis set group =>   3
Atom  43C    basis set group =>   3
Atom  44H    basis set group =>   4
Atom  45C    basis set group =>   3
Atom  46H    basis set group =>   4
Atom  47C    basis set group =>   3
Atom  48H    basis set group =>   4
Atom  49C    basis set group =>   3
Atom  50H    basis set group =>   4
Atom  51C    basis set group =>   3
Atom  52H    basis set group =>   4
Atom  53C    basis set group =>   3
Atom  54C    basis set group =>   3
Atom  55C    basis set group =>   3
Atom  56H    basis set group =>   4
Atom  57H    basis set group =>   4
Atom  58H    basis set group =>   4
Atom  59C    basis set group =>   3
Atom  60H    basis set group =>   4
Atom  61H    basis set group =>   4
Atom  62H    basis set group =>   4
Atom  63C    basis set group =>   3
Atom  64C    basis set group =>   3
Atom  65H    basis set group =>   4
Atom  66C    basis set group =>   3
Atom  67H    basis set group =>   4
Atom  68C    basis set group =>   3
Atom  69H    basis set group =>   4
Atom  70C    basis set group =>   3
Atom  71H    basis set group =>   4
Atom  72C    basis set group =>   3
Atom  73H    basis set group =>   4
Atom  74Cu   basis set group =>   5
Atom  75C    basis set group =>   3
Atom  76C    basis set group =>   3
Atom  77C    basis set group =>   3
Atom  78C    basis set group =>   3
Atom  79C    basis set group =>   3
Atom  80C    basis set group =>   3
Atom  81C    basis set group =>   3
Atom  82C    basis set group =>   3
Atom  83C    basis set group =>   3
Atom  84C    basis set group =>   3
Atom  85H    basis set group =>   4
Atom  86H    basis set group =>   4
Atom  87H    basis set group =>   4
Atom  88H    basis set group =>   4
Atom  89H    basis set group =>   4
Atom  90H    basis set group =>   4
Atom  91N    basis set group =>   6
Atom  92N    basis set group =>   6
Atom  93O    basis set group =>   2
Atom  94O    basis set group =>   2
Atom  95C    basis set group =>   3
Atom  96H    basis set group =>   4
Atom  97H    basis set group =>   4
Atom  98H    basis set group =>   4
Atom  99C    basis set group =>   3
Atom 100H    basis set group =>   4
Atom 101H    basis set group =>   4
Atom 102H    basis set group =>   4
---------------------------------
AUXILIARY/J BASIS SET INFORMATION
---------------------------------
There are 6 groups of distinct atoms

 Group   1 Type P   : 14s5p5d2f1g contracted to 8s4p3d1f1g pattern {71111111/2111/311/2/1}
 Group   2 Type O   : 12s5p4d2f1g contracted to 6s4p3d1f1g pattern {711111/2111/211/2/1}
 Group   3 Type C   : 12s5p4d2f1g contracted to 6s4p3d1f1g pattern {711111/2111/211/2/1}
 Group   4 Type H   : 5s2p1d contracted to 3s1p1d pattern {311/2/1}
 Group   5 Type Cu  : 19s5p5d3f3g contracted to 8s5p4d3f3g pattern {121111111/11111/2111/111/111}
 Group   6 Type N   : 12s5p4d2f1g contracted to 6s4p3d1f1g pattern {711111/2111/211/2/1}

Atom   0P    basis set group =>   1
Atom   1P    basis set group =>   1
Atom   2O    basis set group =>   2
Atom   3C    basis set group =>   3
Atom   4C    basis set group =>   3
Atom   5H    basis set group =>   4
Atom   6C    basis set group =>   3
Atom   7H    basis set group =>   4
Atom   8C    basis set group =>   3
Atom   9H    basis set group =>   4
Atom  10C    basis set group =>   3
Atom  11H    basis set group =>   4
Atom  12C    basis set group =>   3
Atom  13H    basis set group =>   4
Atom  14C    basis set group =>   3
Atom  15C    basis set group =>   3
Atom  16H    basis set group =>   4
Atom  17C    basis set group =>   3
Atom  18H    basis set group =>   4
Atom  19C    basis set group =>   3
Atom  20H    basis set group =>   4
Atom  21C    basis set group =>   3
Atom  22C    basis set group =>   3
Atom  23C    basis set group =>   3
Atom  24C    basis set group =>   3
Atom  25H    basis set group =>   4
Atom  26C    basis set group =>   3
Atom  27H    basis set group =>   4
Atom  28C    basis set group =>   3
Atom  29H    basis set group =>   4
Atom  30C    basis set group =>   3
Atom  31C    basis set group =>   3
Atom  32C    basis set group =>   3
Atom  33H    basis set group =>   4
Atom  34C    basis set group =>   3
Atom  35H    basis set group =>   4
Atom  36C    basis set group =>   3
Atom  37H    basis set group =>   4
Atom  38C    basis set group =>   3
Atom  39H    basis set group =>   4
Atom  40C    basis set group =>   3
Atom  41H    basis set group =>   4
Atom  42C    basis set group =>   3
Atom  43C    basis set group =>   3
Atom  44H    basis set group =>   4
Atom  45C    basis set group =>   3
Atom  46H    basis set group =>   4
Atom  47C    basis set group =>   3
Atom  48H    basis set group =>   4
Atom  49C    basis set group =>   3
Atom  50H    basis set group =>   4
Atom  51C    basis set group =>   3
Atom  52H    basis set group =>   4
Atom  53C    basis set group =>   3
Atom  54C    basis set group =>   3
Atom  55C    basis set group =>   3
Atom  56H    basis set group =>   4
Atom  57H    basis set group =>   4
Atom  58H    basis set group =>   4
Atom  59C    basis set group =>   3
Atom  60H    basis set group =>   4
Atom  61H    basis set group =>   4
Atom  62H    basis set group =>   4
Atom  63C    basis set group =>   3
Atom  64C    basis set group =>   3
Atom  65H    basis set group =>   4
Atom  66C    basis set group =>   3
Atom  67H    basis set group =>   4
Atom  68C    basis set group =>   3
Atom  69H    basis set group =>   4
Atom  70C    basis set group =>   3
Atom  71H    basis set group =>   4
Atom  72C    basis set group =>   3
Atom  73H    basis set group =>   4
Atom  74Cu   basis set group =>   5
Atom  75C    basis set group =>   3
Atom  76C    basis set group =>   3
Atom  77C    basis set group =>   3
Atom  78C    basis set group =>   3
Atom  79C    basis set group =>   3
Atom  80C    basis set group =>   3
Atom  81C    basis set group =>   3
Atom  82C    basis set group =>   3
Atom  83C    basis set group =>   3
Atom  84C    basis set group =>   3
Atom  85H    basis set group =>   4
Atom  86H    basis set group =>   4
Atom  87H    basis set group =>   4
Atom  88H    basis set group =>   4
Atom  89H    basis set group =>   4
Atom  90H    basis set group =>   4
Atom  91N    basis set group =>   6
Atom  92N    basis set group =>   6
Atom  93O    basis set group =>   2
Atom  94O    basis set group =>   2
Atom  95C    basis set group =>   3
Atom  96H    basis set group =>   4
Atom  97H    basis set group =>   4
Atom  98H    basis set group =>   4
Atom  99C    basis set group =>   3
Atom 100H    basis set group =>   4
Atom 101H    basis set group =>   4
Atom 102H    basis set group =>   4
---------------------------------
AUXILIARY/C BASIS SET INFORMATION
---------------------------------
There are 6 groups of distinct atoms

 Group   1 Type P   : 10s7p7d3f contracted to 8s5p5d2f pattern {31111111/31111/31111/12}
 Group   2 Type O   : 8s6p5d3f contracted to 6s5p4d1f pattern {311111/21111/2111/3}
 Group   3 Type C   : 8s6p5d3f contracted to 6s5p4d1f pattern {311111/21111/2111/3}
 Group   4 Type H   : 4s3p2d contracted to 3s2p1d pattern {211/21/2}
 Group   5 Type Cu  : 9s9p6d4f3g2h contracted to 9s9p6d4f3g2h pattern {111111111/111111111/111111/1111/111/11}
 Group   6 Type N   : 8s6p5d3f contracted to 6s5p4d1f pattern {311111/21111/2111/3}

Atom   0P    basis set group =>   1
Atom   1P    basis set group =>   1
Atom   2O    basis set group =>   2
Atom   3C    basis set group =>   3
Atom   4C    basis set group =>   3
Atom   5H    basis set group =>   4
Atom   6C    basis set group =>   3
Atom   7H    basis set group =>   4
Atom   8C    basis set group =>   3
Atom   9H    basis set group =>   4
Atom  10C    basis set group =>   3
Atom  11H    basis set group =>   4
Atom  12C    basis set group =>   3
Atom  13H    basis set group =>   4
Atom  14C    basis set group =>   3
Atom  15C    basis set group =>   3
Atom  16H    basis set group =>   4
Atom  17C    basis set group =>   3
Atom  18H    basis set group =>   4
Atom  19C    basis set group =>   3
Atom  20H    basis set group =>   4
Atom  21C    basis set group =>   3
Atom  22C    basis set group =>   3
Atom  23C    basis set group =>   3
Atom  24C    basis set group =>   3
Atom  25H    basis set group =>   4
Atom  26C    basis set group =>   3
Atom  27H    basis set group =>   4
Atom  28C    basis set group =>   3
Atom  29H    basis set group =>   4
Atom  30C    basis set group =>   3
Atom  31C    basis set group =>   3
Atom  32C    basis set group =>   3
Atom  33H    basis set group =>   4
Atom  34C    basis set group =>   3
Atom  35H    basis set group =>   4
Atom  36C    basis set group =>   3
Atom  37H    basis set group =>   4
Atom  38C    basis set group =>   3
Atom  39H    basis set group =>   4
Atom  40C    basis set group =>   3
Atom  41H    basis set group =>   4
Atom  42C    basis set group =>   3
Atom  43C    basis set group =>   3
Atom  44H    basis set group =>   4
Atom  45C    basis set group =>   3
Atom  46H    basis set group =>   4
Atom  47C    basis set group =>   3
Atom  48H    basis set group =>   4
Atom  49C    basis set group =>   3
Atom  50H    basis set group =>   4
Atom  51C    basis set group =>   3
Atom  52H    basis set group =>   4
Atom  53C    basis set group =>   3
Atom  54C    basis set group =>   3
Atom  55C    basis set group =>   3
Atom  56H    basis set group =>   4
Atom  57H    basis set group =>   4
Atom  58H    basis set group =>   4
Atom  59C    basis set group =>   3
Atom  60H    basis set group =>   4
Atom  61H    basis set group =>   4
Atom  62H    basis set group =>   4
Atom  63C    basis set group =>   3
Atom  64C    basis set group =>   3
Atom  65H    basis set group =>   4
Atom  66C    basis set group =>   3
Atom  67H    basis set group =>   4
Atom  68C    basis set group =>   3
Atom  69H    basis set group =>   4
Atom  70C    basis set group =>   3
Atom  71H    basis set group =>   4
Atom  72C    basis set group =>   3
Atom  73H    basis set group =>   4
Atom  74Cu   basis set group =>   5
Atom  75C    basis set group =>   3
Atom  76C    basis set group =>   3
Atom  77C    basis set group =>   3
Atom  78C    basis set group =>   3
Atom  79C    basis set group =>   3
Atom  80C    basis set group =>   3
Atom  81C    basis set group =>   3
Atom  82C    basis set group =>   3
Atom  83C    basis set group =>   3
Atom  84C    basis set group =>   3
Atom  85H    basis set group =>   4
Atom  86H    basis set group =>   4
Atom  87H    basis set group =>   4
Atom  88H    basis set group =>   4
Atom  89H    basis set group =>   4
Atom  90H    basis set group =>   4
Atom  91N    basis set group =>   6
Atom  92N    basis set group =>   6
Atom  93O    basis set group =>   2
Atom  94O    basis set group =>   2
Atom  95C    basis set group =>   3
Atom  96H    basis set group =>   4
Atom  97H    basis set group =>   4
Atom  98H    basis set group =>   4
Atom  99C    basis set group =>   3
Atom 100H    basis set group =>   4
Atom 101H    basis set group =>   4
Atom 102H    basis set group =>   4


           ************************************************************
           *        Program running with 8 parallel MPI-processes     *
           *              working on a common directory               *
           ************************************************************
------------------------------------------------------------------------------
                           ORCA GTO INTEGRAL CALCULATION
                           -- RI-GTO INTEGRALS CHOSEN --
------------------------------------------------------------------------------
------------------------------------------------------------------------------
                   ___                                                        
                  /   \      - P O W E R E D   B Y -                         
                 /     \                                                     
                 |  |  |   _    _      __       _____    __    __             
                 |  |  |  | |  | |    /  \     |  _  \  |  |  /  |          
                  \  \/   | |  | |   /    \    | | | |  |  | /  /          
                 / \  \   | |__| |  /  /\  \   | |_| |  |  |/  /          
                |  |  |   |  __  | /  /__\  \  |    /   |      \           
                |  |  |   | |  | | |   __   |  |    \   |  |\   \          
                \     /   | |  | | |  |  |  |  | |\  \  |  | \   \       
                 \___/    |_|  |_| |__|  |__|  |_| \__\ |__|  \__/        
                                                                              
                      - O R C A' S   B I G   F R I E N D -                    
                                      &                                       
                       - I N T E G R A L  F E E D E R -                       
                                                                              
 v1 FN, 2020, v2 2021                                                         
------------------------------------------------------------------------------


Reading SHARK input file Cu50_XantPhos-dmbp.SHARKINP.tmp ... ok
----------------------
SHARK INTEGRAL PACKAGE
----------------------

Number of atoms                             ...    103
Number of basis functions                   ...   1071
Number of shells                            ...    495
Maximum angular momentum                    ...      3
Integral batch strategy                     ... SHARK/LIBINT Hybrid
RI-J (if used) integral strategy            ... SPLIT-RIJ (Revised 2003 algorithm where possible)
Printlevel                                  ...      1
Contraction scheme used                     ... SEGMENTED contraction
Coulomb Range Separation                    ... NOT USED
Exchange Range Separation                   ... NOT USED
Finite Nucleus Model                        ... NOT USED
Auxiliary Coulomb fitting basis             ... AVAILABLE
   # of basis functions in Aux-J            ...   3421
   # of shells in Aux-J                     ...   1117
   Maximum angular momentum in Aux-J        ...      4
Auxiliary J/K fitting basis                 ... NOT available
Auxiliary Correlation fitting basis         ... AVAILABLE
   # of basis functions in Aux-C            ...   3571
   # of shells in Aux-C                     ...   1233
   Maximum angular momentum in Aux-C        ...      5
Auxiliary 'external' fitting basis          ... NOT available
Integral threshold                          ...     2.500000e-11
Primitive cut-off                           ...     2.500000e-12
Primitive pair pre-selection threshold      ...     2.500000e-12

Calculating pre-screening integrals         ... done (  0.1 sec) Dimension = 495
Organizing shell pair data                  ... done (  0.7 sec)
Shell pair information
Total number of shell pairs                 ...    122760
Shell pairs after pre-screening             ...     65450
Total number of primitive shell pairs       ...    459349
Primitive shell pairs kept                  ...    137049
          la=0 lb=0:  20212 shell pairs
          la=1 lb=0:  24703 shell pairs
          la=1 lb=1:   7673 shell pairs
          la=2 lb=0:   7444 shell pairs
          la=2 lb=1:   4567 shell pairs
          la=2 lb=2:    588 shell pairs
          la=3 lb=0:    147 shell pairs
          la=3 lb=1:     93 shell pairs
          la=3 lb=2:     22 shell pairs
          la=3 lb=3:      1 shell pairs

Calculating one electron integrals          ... done (  0.2 sec)
Calculating RI/J V-Matrix + Cholesky decomp.... done (  0.7 sec)
Calculating RI/C V-Matrix + Cholesky decomp.... done (  0.7 sec)
Calculating Nuclear repulsion               ... done (  0.0 sec) ENN=  10476.757797181084 Eh

SHARK setup successfully completed in   3.4 seconds

Maximum memory used throughout the entire GTOINT-calculation: 118.7 MB


           ************************************************************
           *        Program running with 8 parallel MPI-processes     *
           *              working on a common directory               *
           ************************************************************
-------------------------------------------------------------------------------
                                 ORCA SCF
-------------------------------------------------------------------------------

------------
SCF SETTINGS
------------
Hamiltonian:
 Density Functional     Method          .... DFT(GTOs)
 Exchange Functional    Exchange        .... B88
   X-Alpha parameter    XAlpha          ....  0.666667
   Becke's b parameter  XBeta           ....  0.004200
 Correlation Functional Correlation     .... LYP
 LDA part of GGA corr.  LDAOpt          .... VWN-3
 Gradients option       PostSCFGGA      .... off
 Hybrid DFT is turned on
   Fraction HF Exchange ScalHFX         ....  0.650000
   Scaling of DF-GGA-X  ScalDFX         ....  0.350000
   Scaling of DF-GGA-C  ScalDFC         ....  0.640000
   Scaling of DF-LDA-C  ScalLDAC        ....  0.640000
   Perturbative correction              ....  0.360000
   Density functional embedding theory  .... OFF
 RI-approximation to the Coulomb term is turned on
   Number of AuxJ basis functions       .... 3421
   RIJ-COSX (HFX calculated with COS-X)).... on


General Settings:
 Integral files         IntName         .... Cu50_XantPhos-dmbp
 Hartree-Fock type      HFTyp           .... RHF
 Total Charge           Charge          ....    1
 Multiplicity           Mult            ....    1
 Number of Electrons    NEL             ....  446
 Basis Dimension        Dim             .... 1071
 Nuclear Repulsion      ENuc            ....  10476.7577971811 Eh

Convergence Acceleration:
 DIIS                   CNVDIIS         .... on
   Start iteration      DIISMaxIt       ....    12
   Startup error        DIISStart       ....  0.200000
   # of expansion vecs  DIISMaxEq       ....     5
   Bias factor          DIISBfac        ....   1.050
   Max. coefficient     DIISMaxC        ....  10.000
 Trust-Rad. Augm. Hess. CNVTRAH         .... auto
   Auto Start mean grad. ratio tolernc. ....  1.125000
   Auto Start start iteration           ....    20
   Auto Start num. interpolation iter.  ....    10
   Max. Number of Micro iterations      ....    16
   Max. Number of Macro iterations      .... Maxiter - #DIIS iter
   Number of Davidson start vectors     ....     2
   Converg. threshold I  (grad. norm)   ....   1.000e-05
   Converg. threshold II (energy diff.) ....   1.000e-08
   Grad. Scal. Fac. for Micro threshold ....   0.100
   Minimum threshold for Micro iter.    ....   0.010
   NR start threshold (gradient norm)   ....   0.001
   Initial trust radius                 ....   0.400
   Minimum AH scaling param. (alpha)    ....   1.000
   Maximum AH scaling param. (alpha)    .... 1000.000
   Orbital update algorithm             .... Taylor
   White noise on init. David. guess    .... on
   Maximum white noise                  ....   0.010
   Quad. conv. algorithm                .... NR
 SOSCF                  CNVSOSCF        .... off
 Level Shifting         CNVShift        .... on
   Level shift para.    LevelShift      ....    0.2500
   Turn off err/grad.   ShiftErr        ....    0.0010
 Zerner damping         CNVZerner       .... off
 Static damping         CNVDamp         .... on
   Fraction old density DampFac         ....    0.7000
   Max. Damping (<1)    DampMax         ....    0.9800
   Min. Damping (>=0)   DampMin         ....    0.0000
   Turn off err/grad.   DampErr         ....    0.1000
 Fernandez-Rico         CNVRico         .... off

SCF Procedure:
 Maximum # iterations   MaxIter         ....   125
 SCF integral mode      SCFMode         .... Direct
   Integral package                     .... SHARK and LIBINT hybrid scheme
 Reset frequency        DirectResetFreq ....    20
 Integral Threshold     Thresh          ....  2.500e-11 Eh
 Primitive CutOff       TCut            ....  2.500e-12 Eh

Convergence Tolerance:
 Convergence Check Mode ConvCheckMode   .... Total+1el-Energy
 Convergence forced     ConvForced      .... 1
 Energy Change          TolE            ....  1.000e-08 Eh
 1-El. energy change                    ....  1.000e-05 Eh
 DIIS Error             TolErr          ....  5.000e-07


Diagonalization of the overlap matrix:
Smallest eigenvalue                        ... 1.836e-04
Time for diagonalization                   ...    0.279 sec
Threshold for overlap eigenvalues          ... 1.000e-08
Number of eigenvalues below threshold      ... 0
Time for construction of square roots      ...    0.143 sec
Total time needed                          ...    0.429 sec

Time for model grid setup =    2.795 sec

------------------------------
INITIAL GUESS: MODEL POTENTIAL
------------------------------
Loading Hartree-Fock densities                     ... done
Calculating cut-offs                               ... done
Initializing the effective Hamiltonian             ... done
Setting up the integral package (SHARK)            ... done
Starting the Coulomb interaction                   ... done (   2.8 sec)
Reading the grid                                   ... done
Mapping shells                                     ... done
Starting the XC term evaluation                    ... done (   0.8 sec)
  promolecular density results
     # of electrons  =    446.983879333
     EX              =   -424.344757108
     EC              =     -1.938141164
     EX+EC           =   -426.282898273
Transforming the Hamiltonian                       ... done (   0.1 sec)
Diagonalizing the Hamiltonian                      ... done (   0.2 sec)
Back transforming the eigenvectors                 ... done (   0.0 sec)
Now organizing SCF variables                       ... done
                      ------------------
                      INITIAL GUESS DONE (   6.8 sec)
                      ------------------
-------------------
DFT GRID GENERATION
-------------------

General Integration Accuracy     IntAcc      ... 4.388
Radial Grid Type                 RadialGrid  ... OptM3 with GC (2021)
Angular Grid (max. ang.)         AngularGrid ... 4 (Lebedev-302)
Angular grid pruning method      GridPruning ... 4 (adaptive)
Weight generation scheme         WeightScheme... Becke
Basis function cutoff            BFCut       ... 1.0000e-11
Integration weight cutoff        WCut        ... 1.0000e-14
Angular grids for H and He will be reduced by one unit
Partially contracted basis set               ... off
Rotationally invariant grid construction     ... off

Total number of grid points                  ...   494038
Total number of batches                      ...     7771
Average number of points per batch           ...       63
Average number of grid points per atom       ...     4796
Time for grid setup =   10.344 sec

--------------------
COSX GRID GENERATION
--------------------

GRIDX 1
-------
General Integration Accuracy     IntAcc      ... 3.816
Radial Grid Type                 RadialGrid  ... OptM3 with GC (2021)
Angular Grid (max. ang.)         AngularGrid ... 1 (Lebedev-50)
Angular grid pruning method      GridPruning ... 4 (adaptive)
Weight generation scheme         WeightScheme... Becke
Basis function cutoff            BFCut       ... 1.0000e-11
Integration weight cutoff        WCut        ... 1.0000e-14
Angular grids for H and He will be reduced by one unit
Partially contracted basis set               ... on
Rotationally invariant grid construction     ... off

Total number of grid points                  ...    62224
Total number of batches                      ...     1018
Average number of points per batch           ...       61
Average number of grid points per atom       ...      604
UseSFitting                                  ... on

GRIDX 2
-------
General Integration Accuracy     IntAcc      ... 4.020
Radial Grid Type                 RadialGrid  ... OptM3 with GC (2021)
Angular Grid (max. ang.)         AngularGrid ... 2 (Lebedev-110)
Angular grid pruning method      GridPruning ... 4 (adaptive)
Weight generation scheme         WeightScheme... Becke
Basis function cutoff            BFCut       ... 1.0000e-11
Integration weight cutoff        WCut        ... 1.0000e-14
Angular grids for H and He will be reduced by one unit
Partially contracted basis set               ... on
Rotationally invariant grid construction     ... off

Total number of grid points                  ...   132946
Total number of batches                      ...     2134
Average number of points per batch           ...       62
Average number of grid points per atom       ...     1291
UseSFitting                                  ... on

GRIDX 3
-------
General Integration Accuracy     IntAcc      ... 4.338
Radial Grid Type                 RadialGrid  ... OptM3 with GC (2021)
Angular Grid (max. ang.)         AngularGrid ... 3 (Lebedev-194)
Angular grid pruning method      GridPruning ... 4 (adaptive)
Weight generation scheme         WeightScheme... Becke
Basis function cutoff            BFCut       ... 1.0000e-11
Integration weight cutoff        WCut        ... 1.0000e-14
Angular grids for H and He will be reduced by one unit
Partially contracted basis set               ... on
Rotationally invariant grid construction     ... off

Total number of grid points                  ...   289411
Total number of batches                      ...     4574
Average number of points per batch           ...       63
Average number of grid points per atom       ...     2810
UseSFitting                                  ... on

Time for X-Grid setup             =   10.984 sec


--------------------
CPCM SOLVATION MODEL
--------------------
CPCM parameters:
  Epsilon                                         ...       8.9300
  Refrac                                          ...       1.4242
  Rsolv                                           ...       1.3000
  Surface type                                    ... GAUSSIAN VDW
  Epsilon function type                           ...         CPCM
Solvent:                                     ... CH2CL2
SMD-CDS solvent descriptors:
  Soln                                       ...    1.4242
  Soln25                                     ...    1.4212
  Sola                                       ...    0.1000
  Solb                                       ...    0.0500
  Solg                                       ...   39.1500
  Solc                                       ...    0.0000
  Solh                                       ...    0.6670
Radii:
 Radius for P  used is    4.0062 Bohr (=   2.1200 Ang.)
 Radius for O  used is    3.9949 Bohr (=   2.1140 Ang.)
 Radius for C  used is    3.4960 Bohr (=   1.8500 Ang.)
 Radius for H  used is    2.2677 Bohr (=   1.2000 Ang.)
 Radius for Cu used is    3.5149 Bohr (=   1.8600 Ang.)
 Radius for N  used is    3.5716 Bohr (=   1.8900 Ang.)
Calculating surface                               ...        done! (  0.0s)
GEPOL surface points                              ...         5740
GEPOL Volume                                      ...    5605.7112
GEPOL Surface-area                                ...    2848.7566
Calculating surface distance matrix               ...        done! (  0.3s)
Performing Cholesky decomposition & store         ...        done! (  1.7s)
Overall time for CPCM initialization              ...                 2.0s
--------------
SCF ITERATIONS
--------------
ITER       Energy         Delta-E        Max-DP      RMS-DP      [F,P]     Damp
               ***  Starting incremental Fock matrix formation  ***
  0  -4617.7169120841   0.000000000000 0.12750264  0.00119721  0.1625528 0.7000
  1  -4618.1749700177  -0.458057933601 0.11777643  0.00092106  0.0982409 0.7000
                               ***Turning on DIIS***
  2  -4618.4350647451  -0.260094727404 0.32095951  0.00212045  0.0528404 0.0000
  3  -4618.9028808440  -0.467816098939 0.04435750  0.00034991  0.0416321 0.0000
  4  -4618.9488375366  -0.045956692581 0.01768637  0.00011383  0.0059923 0.0000
  5  -4618.9505650175  -0.001727480939 0.01241280  0.00005327  0.0087956 0.0000
  6  -4618.9509337246  -0.000368707048 0.00343874  0.00002672  0.0064365 0.0000
  7  -4618.9510292694  -0.000095544868 0.00242331  0.00001104  0.0032469 0.0000
  8  -4618.9510558879  -0.000026618467 0.00098197  0.00000833  0.0005181 0.0000
               *** Restarting incremental Fock matrix formation ***
                                   *** Resetting DIIS ***
  9  -4618.9507462094   0.000309678514 0.00158448  0.00001948  0.0004123 0.0000
 10  -4618.9507495863  -0.000003376919 0.00036803  0.00000305  0.0005520 0.0000
 11  -4618.9507501339  -0.000000547557 0.00022959  0.00000181  0.0005045 0.0000
 12  -4618.9507503587  -0.000000224858 0.00008251  0.00000060  0.0001759 0.0000
 13  -4618.9507504126  -0.000000053866 0.00002185  0.00000022  0.0000488 0.0000
 14  -4618.9507503911   0.000000021463 0.00000656  0.00000008  0.0000073 0.0000
 15  -4618.9507503389   0.000000052256 0.00000420  0.00000005  0.0000028 0.0000
                            ***DIIS convergence achieved***

               *****************************************************
               *                     SUCCESS                       *
               *           SCF CONVERGED AFTER  16 CYCLES          *
               *****************************************************

Old exchange energy                            =   -278.580657344 Eh
New exchange energy                            =   -278.580906755 Eh
Exchange energy change after final integration =     -0.000249411 Eh
Total energy after final integration           =  -4618.950999796 Eh
Final COS-X integration done in                =   125.412 sec

SMD CDS free energy correction energy :               -15.44052     Kcal/mol
Total Energy after SMD CDS correction =             -4618.975605830 Eh

----------------
TOTAL SCF ENERGY
----------------

Total Energy       :        -4618.97560583 Eh         -125688.71613 eV

Components:
Nuclear Repulsion  :        10476.75779718 Eh          285087.07321 eV
Electronic Energy  :       -15095.73340301 Eh         -410775.78933 eV
One Electron Energy:       -27202.19829120 Eh         -740209.44702 eV
Two Electron Energy:        12106.46488818 Eh          329433.65769 eV
Max COSX asymmetry :            0.00003728 Eh               0.00101 eV
CPCM Dielectric    :           -0.07461280 Eh              -2.03032 eV
SMD CDS (Gcds)     :           -0.02460603 Eh              -0.66956 eV

Virial components:
Potential Energy   :        -9215.16361251 Eh         -250757.35015 eV
Kinetic Energy     :         4596.18800668 Eh          125068.63403 eV
Virial Ratio       :            2.00495793


DFT components:
N(Alpha)           :      223.000096599721 electrons
N(Beta)            :      223.000096599721 electrons
N(Total)           :      446.000193199441 electrons
E(X)               :     -150.254480570091 Eh       
E(C)               :      -10.106774008982 Eh       
E(XC)              :     -160.361254579073 Eh       
DFET-embed. en.    :        0.000000000000 Eh       
CPCM Solvation Model Properties:
Surface-charge          :           -1.07211212
Charge-correction       :            0.00518727 Eh               0.14115 eV
Free-energy (cav+disp)  :           -0.02460603 Eh              -0.66956 eV

---------------
SCF CONVERGENCE
---------------

  Last Energy change         ...   -4.6453e-08  Tolerance :   1.0000e-08
  Last MAX-Density change    ...    0.0000e+00  Tolerance :   1.0000e-07
  Last RMS-Density change    ...    0.0000e+00  Tolerance :   5.0000e-09
  Last DIIS Error            ...    9.1700e-07  Tolerance :   5.0000e-07

             **** THE GBW FILE WAS UPDATED (Cu50_XantPhos-dmbp.gbw) ****
             **** DENSITY Cu50_XantPhos-dmbp.scfp WAS UPDATED ****
             **** ENERGY FILE WAS UPDATED (Cu50_XantPhos-dmbp.en.tmp) ****
             **** THE GBW FILE WAS UPDATED (Cu50_XantPhos-dmbp.gbw) ****
             **** DENSITY Cu50_XantPhos-dmbp.scfp WAS UPDATED ****
----------------
ORBITAL ENERGIES
----------------

  NO   OCC          E(Eh)            E(eV) 
   0   2.0000    -326.284552     -8878.6540 
   1   2.0000     -78.718424     -2142.0372 
   2   2.0000     -78.714495     -2141.9303 
   3   2.0000     -39.948925     -1087.0655 
   4   2.0000     -34.936618      -950.6737 
   5   2.0000     -34.936419      -950.6683 
   6   2.0000     -34.936060      -950.6585 
   7   2.0000     -20.008589      -544.4614 
   8   2.0000     -19.994880      -544.0884 
   9   2.0000     -19.994765      -544.0852 
  10   2.0000     -15.062233      -409.8642 
  11   2.0000     -15.062205      -409.8634 
  12   2.0000     -10.889446      -296.3169 
  13   2.0000     -10.889386      -296.3153 
  14   2.0000     -10.870399      -295.7986 
  15   2.0000     -10.868777      -295.7545 
  16   2.0000     -10.859975      -295.5149 
  17   2.0000     -10.859514      -295.5024 
  18   2.0000     -10.850312      -295.2520 
  19   2.0000     -10.849770      -295.2372 
  20   2.0000     -10.845050      -295.1088 
  21   2.0000     -10.845043      -295.1086 
  22   2.0000     -10.818468      -294.3855 
  23   2.0000     -10.810694      -294.1739 
  24   2.0000     -10.809557      -294.1430 
  25   2.0000     -10.809228      -294.1340 
  26   2.0000     -10.809088      -294.1302 
  27   2.0000     -10.808912      -294.1254 
  28   2.0000     -10.808653      -294.1184 
  29   2.0000     -10.807145      -294.0774 
  30   2.0000     -10.806972      -294.0727 
  31   2.0000     -10.806861      -294.0696 
  32   2.0000     -10.806776      -294.0673 
  33   2.0000     -10.806379      -294.0565 
  34   2.0000     -10.805551      -294.0340 
  35   2.0000     -10.805469      -294.0318 
  36   2.0000     -10.805424      -294.0305 
  37   2.0000     -10.804933      -294.0172 
  38   2.0000     -10.804718      -294.0113 
  39   2.0000     -10.804334      -294.0009 
  40   2.0000     -10.803836      -293.9873 
  41   2.0000     -10.803286      -293.9724 
  42   2.0000     -10.802782      -293.9586 
  43   2.0000     -10.802518      -293.9515 
  44   2.0000     -10.801957      -293.9362 
  45   2.0000     -10.801594      -293.9263 
  46   2.0000     -10.801573      -293.9257 
  47   2.0000     -10.801481      -293.9232 
  48   2.0000     -10.800271      -293.8903 
  49   2.0000     -10.798703      -293.8476 
  50   2.0000     -10.798576      -293.8442 
[...]
   221a -> 223a  :     0.054680 
   221a -> 225a  :     0.025595 
   222a -> 229a  :     0.010286 
   222a -> 230a  :     0.116061 
   222a -> 231a  :     0.010652 
   222a -> 232a  :     0.029647 

STATE 33:  E=   0.187806 au      5.110 eV    41218.8 cm**-1 <S**2> =   0.000000
   203a -> 223a  :     0.069633 
   204a -> 223a  :     0.025496 
   205a -> 225a  :     0.030770 
   207a -> 231a  :     0.010972 
   207a -> 232a  :     0.010402 
   208a -> 225a  :     0.015093 
   209a -> 225a  :     0.022179 
   209a -> 231a  :     0.025159 
   209a -> 232a  :     0.054350 
   210a -> 225a  :     0.020503 
   210a -> 226a  :     0.013038 
   211a -> 225a  :     0.016375 
   213a -> 232a  :     0.014054 
   214a -> 225a  :     0.012754 
   215a -> 225a  :     0.022267 
   215a -> 232a  :     0.010671 
   218a -> 239a  :     0.013897 
   220a -> 223a  :     0.017110 
   221a -> 225a  :     0.012249 
   222a -> 225a  :     0.057677 
   222a -> 226a  :     0.020024 
   222a -> 227a  :     0.013122 
   222a -> 230a  :     0.089537 

STATE 34:  E=   0.187257 au      5.096 eV    41098.2 cm**-1 <S**2> =   0.000000
   216a -> 228a  :     0.010283 
   216a -> 230a  :     0.011199 
   217a -> 224a  :     0.011021 
   220a -> 224a  :     0.028964 
   220a -> 226a  :     0.035269 
   220a -> 227a  :     0.011607 
   220a -> 228a  :     0.018693 
   220a -> 230a  :     0.022826 
   220a -> 235a  :     0.030778 
   221a -> 225a  :     0.024172 
   221a -> 226a  :     0.037508 
   221a -> 227a  :     0.084518 
   221a -> 229a  :     0.012569 
   222a -> 226a  :     0.024356 
   222a -> 230a  :     0.029334 
   222a -> 233a  :     0.101919 
   222a -> 234a  :     0.046387 
   222a -> 236a  :     0.015742 
   222a -> 237a  :     0.024160 
   222a -> 238a  :     0.011400 

STATE 35:  E=   0.192767 au      5.245 eV    42307.5 cm**-1 <S**2> =   0.000000
   208a -> 224a  :     0.037719 
   208a -> 226a  :     0.014565 
   212a -> 224a  :     0.015429 
   213a -> 224a  :     0.011201 
   215a -> 224a  :     0.046016 
   217a -> 224a  :     0.035048 
   218a -> 224a  :     0.022014 
   219a -> 226a  :     0.015673 
   219a -> 227a  :     0.010802 
   219a -> 228a  :     0.011782 
   220a -> 227a  :     0.024285 
   220a -> 228a  :     0.012736 
   221a -> 226a  :     0.037510 
   221a -> 227a  :     0.031894 
   221a -> 230a  :     0.045960 
   221a -> 233a  :     0.016885 
   221a -> 235a  :     0.043273 
   222a -> 228a  :     0.017113 
   222a -> 233a  :     0.056484 
   222a -> 234a  :     0.025413 
   222a -> 235a  :     0.030026 
   222a -> 236a  :     0.011940 
   222a -> 237a  :     0.014154 

STATE 36:  E=   0.190262 au      5.177 eV    41757.8 cm**-1 <S**2> =   0.000000
   213a -> 227a  :     0.010909 
   219a -> 236a  :     0.011681 
   220a -> 224a  :     0.030541 
   220a -> 229a  :     0.011525 
   221a -> 224a  :     0.051016 
   221a -> 229a  :     0.017879 
   221a -> 231a  :     0.012611 
   221a -> 232a  :     0.012889 
   222a -> 225a  :     0.010659 
   222a -> 233a  :     0.156045 
   222a -> 234a  :     0.218460 
   222a -> 235a  :     0.030396 
   222a -> 238a  :     0.013390 

STATE 37:  E=   0.178819 au      4.866 eV    39246.2 cm**-1 <S**2> =   0.000000
   207a -> 224a  :     0.017782 
   215a -> 227a  :     0.010784 
   216a -> 226a  :     0.011211 
   217a -> 224a  :     0.027410 
   220a -> 226a  :     0.022291 
   220a -> 227a  :     0.017807 
   220a -> 235a  :     0.020021 
   221a -> 224a  :     0.020585 
   221a -> 225a  :     0.015809 
   221a -> 226a  :     0.113769 
   221a -> 227a  :     0.066311 
   221a -> 229a  :     0.023510 
   221a -> 230a  :     0.025240 
   221a -> 233a  :     0.014202 
   222a -> 224a  :     0.015123 
   222a -> 229a  :     0.054143 
   222a -> 230a  :     0.055383 
   222a -> 233a  :     0.022689 
   222a -> 234a  :     0.031412 
   222a -> 235a  :     0.011553 
   222a -> 238a  :     0.013322 

STATE 38:  E=   0.188654 au      5.134 eV    41404.8 cm**-1 <S**2> =   0.000000
   209a -> 224a  :     0.012021 
   210a -> 225a  :     0.015048 
   214a -> 224a  :     0.034544 
   216a -> 227a  :     0.011498 
   219a -> 227a  :     0.013688 
   220a -> 224a  :     0.011557 
   220a -> 226a  :     0.043730 
   221a -> 226a  :     0.012791 
   221a -> 227a  :     0.026638 
   221a -> 228a  :     0.015361 
   221a -> 235a  :     0.015121 
   222a -> 230a  :     0.016890 
   222a -> 232a  :     0.071922 
   222a -> 233a  :     0.028104 
   222a -> 234a  :     0.025131 
   222a -> 235a  :     0.113106 
   222a -> 236a  :     0.022765 
   222a -> 237a  :     0.034959 
   222a -> 238a  :     0.034318 

STATE 39:  E=   0.191599 au      5.214 eV    42051.0 cm**-1 <S**2> =   0.000000
   205a -> 232a  :     0.011131 
   209a -> 224a  :     0.014648 
   209a -> 225a  :     0.029685 
   210a -> 225a  :     0.033197 
   213a -> 225a  :     0.015642 
   215a -> 226a  :     0.011087 
   217a -> 226a  :     0.020545 
   220a -> 224a  :     0.024193 
   220a -> 225a  :     0.012258 
   220a -> 226a  :     0.012539 
   220a -> 236a  :     0.010660 
   220a -> 237a  :     0.013495 
   221a -> 224a  :     0.018245 
   221a -> 225a  :     0.036843 
   221a -> 231a  :     0.022969 
   222a -> 231a  :     0.091948 
   222a -> 232a  :     0.057893 
   222a -> 234a  :     0.097388 
   222a -> 235a  :     0.042897 

STATE 40:  E=   0.194822 au      5.301 eV    42758.5 cm**-1 <S**2> =   0.000000
   203a -> 223a  :     0.017964 
   206a -> 223a  :     0.038636 
   209a -> 223a  :     0.018697 
   211a -> 223a  :     0.017745 
   212a -> 223a  :     0.053764 
   213a -> 223a  :     0.049307 
   214a -> 223a  :     0.084940 
   215a -> 224a  :     0.010623 
   216a -> 223a  :     0.224076 
   217a -> 223a  :     0.040625 
   218a -> 223a  :     0.017937 
   218a -> 232a  :     0.014953 
   219a -> 223a  :     0.012649 
   220a -> 223a  :     0.030841 
   221a -> 226a  :     0.034530 
   222a -> 234a  :     0.021737 
   222a -> 235a  :     0.012226 
   222a -> 236a  :     0.012798 


-------------------------
TD-DFT-EXCITATION SPECTRA
-------------------------

Center of mass = ( -0.0209, -0.0051,  0.0234)
Calculating the Dipole integrals                  ... done
Transforming integrals                            ... done
Calculating the Linear Momentum integrals         ... done
Transforming integrals                            ... done
Calculating angular momentum integrals            ... done
Transforming integrals                            ... done

-----------------------------------------------------------------------------
         ABSORPTION SPECTRUM VIA TRANSITION ELECTRIC DIPOLE MOMENTS
-----------------------------------------------------------------------------
State   Energy    Wavelength  fosc         T2        TX        TY        TZ  
        (cm-1)      (nm)                 (au**2)    (au)      (au)      (au) 
-----------------------------------------------------------------------------
   1   21370.0    467.9   0.090424675   1.39302  -1.04565   0.51120  -0.19573
   2   38787.3    257.8   0.258395860   2.19317  -0.61307  -1.04753   0.84852
   3   32369.0    308.9   0.057775552   0.58761  -0.32867  -0.68809  -0.07826
   4   23494.4    425.6   0.010423744   0.14606   0.33098  -0.16654   0.09368
   5   35708.7    280.0   0.357574773   3.29662   1.07013   0.94215  -1.12418
   6   35830.0    279.1   0.047692415   0.43821   0.17777   0.28851   0.56865
   7   37224.1    268.6   0.014509460   0.12832  -0.20838  -0.04234  -0.28829
   8   38443.8    260.1   0.167423051   1.43372  -0.56420   0.12823  -1.04831
   9   35315.6    283.2   0.097713961   0.91089  -0.36862   0.69881  -0.53542
  10   38762.4    258.0   0.021016982   0.17850  -0.26304   0.04812   0.32710
  11   35754.3    279.7   0.022796275   0.20990   0.33305   0.26599   0.16800
  12   38240.3    261.5   0.194769205   1.67677   0.81880  -0.96775   0.26419
  13   37400.0    267.4   0.026897975   0.23677   0.22006   0.34693   0.26073
  14   40690.8    245.8   0.007627973   0.06171   0.22989  -0.09187   0.02059
  15   40922.2    244.4   0.001892481   0.01522  -0.07035   0.10136  -0.00083
  16   34372.6    290.9   0.055002262   0.52680  -0.54769  -0.42150   0.22175
  17   41681.2    239.9   0.010157923   0.08023  -0.04034   0.28019  -0.00981
  18   39826.1    251.1   0.212262175   1.75461  -0.19096  -0.88731  -0.96479
  19   38242.7    261.5   0.034534408   0.29729  -0.53460   0.06403   0.08599
  20   43879.8    227.9   0.030927055   0.23203   0.31429  -0.30823  -0.19557
  21   42932.4    232.9   0.025311459   0.19409  -0.14726  -0.32982  -0.25224
  22   34512.9    289.7   0.135010152   1.28784   0.52264   0.75492  -0.66692
  23   33247.0    300.8   0.139956243   1.38585   0.04235  -1.01637   0.59249
  24   44380.1    225.3   0.059396823   0.44061  -0.20724  -0.57259  -0.26419
  25   40044.5    249.7   0.028449419   0.23389   0.38928  -0.17239  -0.22942
  26   42160.3    237.2   0.079347479   0.61959  -0.07550   0.35689   0.69751
  27   41769.9    239.4   0.279652260   2.20409   0.47967   1.37132  -0.30578
  28   42299.7    236.4   0.177191722   1.37906   0.95522   0.66978   0.13415
  29   38517.6    259.6   0.018347143   0.15681  -0.19440  -0.27569   0.20741
  30   42465.7    235.5   0.139258157   1.07959   0.29653  -0.43692   0.89485
  31   40912.9    244.4   0.001090819   0.00878   0.01578  -0.04751   0.07919
  32   41712.1    239.7   0.109833991   0.86686   0.73563   0.53203   0.20651
  33   41218.8    242.6   0.047435935   0.37887   0.01491   0.41114  -0.45783
  34   41098.2    243.3   0.105261829   0.84319  -0.42710  -0.45861  -0.67115
  35   42307.5    236.4   0.155734166   1.21183   0.70061   0.84080   0.11843
  36   41757.8    239.5   0.239599450   1.88897   0.31133  -1.25701   0.46041
  37   39246.2    254.8   0.024872006   0.20864   0.01530   0.25749  -0.37696
  38   41404.8    241.5   0.033966947   0.27007  -0.31235  -0.39141  -0.13894
  39   42051.0    237.8   0.426184097   3.33654   1.22150  -1.22983  -0.57619
  40   42758.5    233.9   0.052594816   0.40494   0.52581  -0.28145  -0.22193

-----------------------------------------------------------------------------
         ABSORPTION SPECTRUM VIA TRANSITION VELOCITY DIPOLE MOMENTS
-----------------------------------------------------------------------------
State   Energy    Wavelength   fosc        P2         PX        PY        PZ  
        (cm-1)      (nm)                 (au**2)     (au)      (au)      (au) 
-----------------------------------------------------------------------------
   1   21370.0    467.9   0.299605121   0.04376   0.18480  -0.09211   0.03350
   2   38787.3    257.8   0.247726313   0.06567   0.10628   0.18142  -0.14650
   3   32369.0    308.9   0.091018026   0.02014   0.06023   0.12751   0.01577
   4   23494.4    425.6   0.032808024   0.00527  -0.06266   0.03383  -0.01405
   5   35708.7    280.0   0.509323696   0.12430  -0.20619  -0.18386   0.21904
   6   35830.0    279.1   0.067340775   0.01649  -0.03629  -0.05647  -0.10947
   7   37224.1    268.6   0.018327078   0.00466   0.03624   0.01057   0.05690
   8   38443.8    260.1   0.221809630   0.05828   0.11660  -0.02458   0.20995
   9   35315.6    283.2   0.152867945   0.03690   0.07593  -0.13774   0.11027
  10   38762.4    258.0   0.029834938   0.00790   0.05451  -0.00843  -0.06973
  11   35754.3    279.7   0.042531672   0.01039  -0.06971  -0.06266  -0.04009
  12   38240.3    261.5   0.269813825   0.07052  -0.16679   0.20023  -0.05105
  13   37400.0    267.4   0.042813415   0.01094  -0.04595  -0.07325  -0.05888
  14   40690.8    245.8   0.009568205   0.00266  -0.04779   0.01889  -0.00451
  15   40922.2    244.4   0.002619398   0.00073   0.01625  -0.02159  -0.00152
  16   34372.6    290.9   0.093820368   0.02204   0.10923   0.09024  -0.04433
  17   41681.2    239.9   0.012152605   0.00346   0.00839  -0.05822   0.00129
  18   39826.1    251.1   0.282792232   0.07697   0.04031   0.18554   0.20230
  19   38242.7    261.5   0.047869428   0.01251   0.10938  -0.01414  -0.01863
  20   43879.8    227.9   0.036068942   0.01082  -0.06704   0.06658   0.04348
  21   42932.4    232.9   0.033836556   0.00993   0.03272   0.07556   0.05611
  22   34512.9    289.7   0.260135577   0.06136  -0.11464  -0.16108   0.14924
  23   33247.0    300.8   0.307466666   0.06986  -0.00787   0.22800  -0.13349
  24   44380.1    225.3   0.075746807   0.02298   0.04576   0.13158   0.05973
  25   40044.5    249.7   0.044343898   0.01214  -0.08913   0.03263   0.05592
  26   42160.3    237.2   0.113328955   0.03266   0.01807  -0.07993  -0.16106
  27   41769.9    239.4   0.408096234   0.11650  -0.10806  -0.31575   0.07161
  28   42299.7    236.4   0.242829859   0.07020  -0.21354  -0.15267  -0.03601
  29   38517.6    259.6   0.025989666   0.00684   0.04084   0.05838  -0.04202
  30   42465.7    235.5   0.188545947   0.05472  -0.07225   0.09413  -0.20160
  31   40912.9    244.4   0.001362003   0.00038  -0.00023   0.00803  -0.01778
  32   41712.1    239.7   0.159859021   0.04557  -0.16854  -0.12082  -0.05069
  33   41218.8    242.6   0.069802355   0.01966  -0.00995  -0.09504   0.10263
  34   41098.2    243.3   0.157028872   0.04411   0.10005   0.10625   0.15102
  35   42307.5    236.4   0.229818889   0.06645  -0.16877  -0.19316  -0.02560
  36   41757.8    239.5   0.370924171   0.10586  -0.07581   0.29746  -0.10785
  37   39246.2    254.8   0.044778433   0.01201  -0.00861  -0.06152   0.09029
  38   41404.8    241.5   0.055899291   0.01582   0.07109   0.09912   0.03066
  39   42051.0    237.8   0.670264133   0.19263  -0.29487   0.29481   0.13699
  40   42758.5    233.9   0.077340245   0.02260  -0.12513   0.06605   0.05080

-------------------------------------------------------------------
                             CD SPECTRUM
-------------------------------------------------------------------
State  Energy     Wavelength     R         MX        MY        MZ   
       (cm-1)       (nm)     (1e40*cgs)   (au)      (au)      (au)  
-------------------------------------------------------------------
   1   21370.0    467.9     28.22162  -0.09032  -0.07615  -0.02222
   2   38787.3    257.8     64.09226   0.27414   0.55198   1.03972
   3   32369.0    308.9    -53.47172  -0.71177   0.52638  -0.18969
   4   23494.4    425.6     23.45848   0.08609  -0.04167   0.15289
   5   35708.7    280.0    -221.93665  -0.21391   0.03992   0.24858
   6   35830.0    279.1     54.99494  -0.62444  -0.06961   0.43567
   7   37224.1    268.6     30.84364  -0.02551   0.10683  -0.22419
   8   38443.8    260.1    180.20840  -0.21020   0.45473  -0.19587
   9   35315.6    283.2    -173.70345   0.18397  -0.25739   0.22556
  10   38762.4    258.0     22.55679   0.11654  -0.00986   0.24144
  11   35754.3    279.7     -0.10609  -0.01534  -0.09232   0.17523
  12   38240.3    261.5     80.83722   0.11616  -0.11670  -0.13848
  13   37400.0    267.4    -13.80514   0.00164  -0.21505   0.17246
  14   40690.8    245.8     -5.53358   0.07342   0.26590  -0.20347
  15   40922.2    244.4      7.31330  -0.04498   0.12114  -0.08210
  16   34372.6    290.9    -36.40252   0.09218   0.00111  -0.11842
  17   41681.2    239.9      9.69615   0.14203   0.09547   0.04606
  18   39826.1    251.1     68.98668   0.10436   0.16098  -0.32037
  19   38242.7    261.5     15.52620  -0.05146   0.02239   0.04641
  20   43879.8    227.9    -29.19055   0.02479   0.23579  -0.01518
  21   42932.4    232.9     57.38809   0.18383  -0.22966  -0.28961
  22   34512.9    289.7     63.87503  -0.02123  -0.27252  -0.52827
  23   33247.0    300.8     31.53416   0.19335   0.13466   0.33006
  24   44380.1    225.3    -49.46771  -0.01019   0.22211  -0.07623
  25   40044.5    249.7    -108.54666  -0.22959   0.67102   0.10980
  26   42160.3    237.2    -178.83240   0.46974  -0.64419  -0.16337
  27   41769.9    239.4    -105.17132   0.16275  -0.26091  -0.18522
  28   42299.7    236.4    -43.83697   0.05761   0.01315  -1.16899
  29   38517.6    259.6    -79.04372   0.06482   0.73458   0.22880
  30   42465.7    235.5    170.00133   0.76560   1.23701   0.75324
  31   40912.9    244.4     15.38675   0.22433   0.16987   0.46932
  32   41712.1    239.7    -184.22312   0.14331  -0.69318  -0.61685
  33   41218.8    242.6    109.35162   0.13415   0.21193  -0.31193
  34   41098.2    243.3    381.30562  -1.75114   0.84224  -0.66621
  35   42307.5    236.4    -98.60012   0.23821  -0.57523   0.90868
  36   41757.8    239.5    -46.15870   0.29216   0.13569  -0.03975
  37   39246.2    254.8    -114.61802   0.65900  -0.46365   0.35499
  38   41404.8    241.5    -122.87119  -0.50228   1.23093  -0.46267
  39   42051.0    237.8    -911.52851   0.04839   1.35960   0.55621
  40   42758.5    233.9    192.01500   0.60491   0.26122  -0.73328

Total run time:    42023.526 sec

           *** ORCA-CIS/TD-DFT FINISHED WITHOUT ERROR ***

Maximum memory used throughout the entire CIS-calculation: 6506.2 MB

-----------------------
CIS/TD-DFT TOTAL ENERGY
-----------------------

    E(SCF)  =  -4618.975605830 Eh
    DE(CIS) =      0.097368894 Eh (Root  1)
    ----------------------------- ---------
    E(tot)  =  -4618.878236937 Eh


-------------------------   --------------------
FINAL SINGLE POINT ENERGY     -4618.878236936510
-------------------------   --------------------


                            ***************************************
                            *     ORCA property calculations      *
                            ***************************************


  WARNING: The energy has been calculated at the MP2 level but the densities
           used in the property calculations are still SCF densities
           MP2 response densities have not been calculated 
           use %mp2 Density relaxed end
           or  %mp2 Density unrelaxed end

                                    ---------------------
                                    Active property flags
                                    ---------------------
   (+) Dipole Moment


------------------------------------------------------------------------------
                       ORCA ELECTRIC PROPERTIES CALCULATION
------------------------------------------------------------------------------

Dipole Moment Calculation                       ... on
Quadrupole Moment Calculation                   ... off
Polarizability Calculation                      ... off
GBWName                                         ... Cu50_XantPhos-dmbp.gbw
Electron density                                ... Cu50_XantPhos-dmbp.scfp
The origin for moment calculation is the CENTER OF MASS  = (-0.020916, -0.005062  0.023354)

-------------
DIPOLE MOMENT
-------------
                                X             Y             Z
Electronic contribution:    -11.17017      -1.21267       9.93530
Nuclear contribution   :      9.34962       2.26265     -10.43918
                        -----------------------------------------
Total Dipole Moment    :     -1.82055       1.04998      -0.50388
                        -----------------------------------------
Magnitude (a.u.)       :      2.16120
Magnitude (Debye)      :      5.49332



--------------------
Rotational spectrum 
--------------------
 
Rotational constants in cm-1:     0.001620     0.001388     0.001306 
Rotational constants in MHz :    48.556439    41.614861    39.141753 

 Dipole components along the rotational axes: 
x,y,z [a.u.] :    -1.843895     0.985323    -0.547684 
x,y,z [Debye]:    -4.686808     2.504491    -1.392102 

 

Timings for individual modules:

Sum of individual times         ...    44363.521 sec (= 739.392 min)
GTO integral calculation        ...        4.342 sec (=   0.072 min)   0.0 %
SCF iterations                  ...      968.442 sec (=  16.141 min)   2.2 %
MP2 module                      ...     1365.779 sec (=  22.763 min)   3.1 %
CIS module                      ...    42024.957 sec (= 700.416 min)  94.7 %
                             ****ORCA TERMINATED NORMALLY****
TOTAL RUN TIME: 0 days 12 hours 19 minutes 29 seconds 11 msec
