
                                 *****************
                                 * O   R   C   A *
                                 *****************

                                            #,                                       
                                            ###                                      
                                            ####                                     
                                            #####                                    
                                            ######                                   
                                           ########,                                 
                                     ,,################,,,,,                         
                               ,,#################################,,                 
                          ,,##########################################,,             
                       ,#########################################, ''#####,          
                    ,#############################################,,   '####,        
                  ,##################################################,,,,####,       
                ,###########''''           ''''###############################       
              ,#####''   ,,,,##########,,,,          '''####'''          '####       
            ,##' ,,,,###########################,,,                        '##       
           ' ,,###''''                  '''############,,,                           
         ,,##''                                '''############,,,,        ,,,,,,###''
      ,#''                                            '''#######################'''  
     '                                                          ''''####''''         
             ,#######,   #######,   ,#######,      ##                                
            ,#'     '#,  ##    ##  ,#'     '#,    #''#        ######   ,####,        
            ##       ##  ##   ,#'  ##            #'  '#       #        #'  '#        
            ##       ##  #######   ##           ,######,      #####,   #    #        
            '#,     ,#'  ##    ##  '#,     ,#' ,#      #,         ##   #,  ,#        
             '#######'   ##     ##  '#######'  #'      '#     #####' # '####'        



                  #######################################################
                  #                        -***-                        #
                  #          Department of theory and spectroscopy      #
                  #    Directorship and core code : Frank Neese         #
                  #        Max Planck Institute fuer Kohlenforschung    #
                  #                Kaiser Wilhelm Platz 1               #
                  #                 D-45470 Muelheim/Ruhr               #
                  #                      Germany                        #
                  #                                                     #
                  #                  All rights reserved                #
                  #                        -***-                        #
                  #######################################################


                         Program Version 5.0.2 -  RELEASE  -


 With contributions from (in alphabetic order):
   Daniel Aravena         : Magnetic Suceptibility
   Michael Atanasov       : Ab Initio Ligand Field Theory (pilot matlab implementation)
   Alexander A. Auer      : GIAO ZORA, VPT2 properties, NMR spectrum
   Ute Becker             : Parallelization
   Giovanni Bistoni       : ED, misc. LED, open-shell LED, HFLD
   Martin Brehm           : Molecular dynamics
   Dmytro Bykov           : SCF Hessian
   Vijay G. Chilkuri      : MRCI spin determinant printing, contributions to CSF-ICE
   Dipayan Datta          : RHF DLPNO-CCSD density
   Achintya Kumar Dutta   : EOM-CC, STEOM-CC
   Dmitry Ganyushin       : Spin-Orbit,Spin-Spin,Magnetic field MRCI
   Miquel Garcia          : C-PCM and meta-GGA Hessian, CC/C-PCM, Gaussian charge scheme
   Yang Guo               : DLPNO-NEVPT2, F12-NEVPT2, CIM, IAO-localization
   Andreas Hansen         : Spin unrestricted coupled pair/coupled cluster methods
   Benjamin Helmich-Paris : MC-RPA, TRAH-SCF, COSX integrals
   Lee Huntington         : MR-EOM, pCC
   Robert Izsak           : Overlap fitted RIJCOSX, COSX-SCS-MP3, EOM
   Marcus Kettner         : VPT2
   Christian Kollmar      : KDIIS, OOCD, Brueckner-CCSD(T), CCSD density, CASPT2, CASPT2-K
   Simone Kossmann        : Meta GGA functionals, TD-DFT gradient, OOMP2, MP2 Hessian
   Martin Krupicka        : Initial AUTO-CI
   Lucas Lang             : DCDCAS
   Marvin Lechner         : AUTO-CI (C++ implementation), FIC-MRCC
   Dagmar Lenk            : GEPOL surface, SMD
   Dimitrios Liakos       : Extrapolation schemes; Compound Job, initial MDCI parallelization
   Dimitrios Manganas     : Further ROCIS development; embedding schemes
   Dimitrios Pantazis     : SARC Basis sets
   Anastasios Papadopoulos: AUTO-CI, single reference methods and gradients
   Taras Petrenko         : DFT Hessian,TD-DFT gradient, ASA, ECA, R-Raman, ABS, FL, XAS/XES, NRVS
   Peter Pinski           : DLPNO-MP2, DLPNO-MP2 Gradient
   Christoph Reimann      : Effective Core Potentials
   Marius Retegan         : Local ZFS, SOC
   Christoph Riplinger    : Optimizer, TS searches, QM/MM, DLPNO-CCSD(T), (RO)-DLPNO pert. Triples
   Tobias Risthaus        : Range-separated hybrids, TD-DFT gradient, RPA, STAB
   Michael Roemelt        : Original ROCIS implementation
   Masaaki Saitow         : Open-shell DLPNO-CCSD energy and density
   Barbara Sandhoefer     : DKH picture change effects
   Avijit Sen             : IP-ROCIS
   Kantharuban Sivalingam : CASSCF convergence, NEVPT2, FIC-MRCI
   Bernardo de Souza      : ESD, SOC TD-DFT
   Georgi Stoychev        : AutoAux, RI-MP2 NMR, DLPNO-MP2 response
   Willem Van den Heuvel  : Paramagnetic NMR
   Boris Wezisla          : Elementary symmetry handling
   Frank Wennmohs         : Technical directorship


 We gratefully acknowledge several colleagues who have allowed us to
 interface, adapt or use parts of their codes:
   Stefan Grimme, W. Hujo, H. Kruse, P. Pracht,  : VdW corrections, initial TS optimization,
                  C. Bannwarth, S. Ehlert          DFT functionals, gCP, sTDA/sTD-DF
   Ed Valeev, F. Pavosevic, A. Kumar             : LibInt (2-el integral package), F12 methods
   Garnet Chan, S. Sharma, J. Yang, R. Olivares  : DMRG
   Ulf Ekstrom                                   : XCFun DFT Library
   Mihaly Kallay                                 : mrcc  (arbitrary order and MRCC methods)
   Jiri Pittner, Ondrej Demel                    : Mk-CCSD
   Frank Weinhold                                : gennbo (NPA and NBO analysis)
   Christopher J. Cramer and Donald G. Truhlar   : smd solvation model
   Lars Goerigk                                  : TD-DFT with DH, B97 family of functionals
   V. Asgeirsson, H. Jonsson                     : NEB implementation
   FAccTs GmbH                                   : IRC, NEB, NEB-TS, DLPNO-Multilevel, CI-OPT
                                                   MM, QMMM, 2- and 3-layer-ONIOM, Crystal-QMMM,
                                                   LR-CPCM, SF, NACMEs, symmetry and pop. for TD-DFT,
                                                   nearIR, NL-DFT gradient (VV10), updates on ESD,
                                                   ML-optimized integration grids
   S Lehtola, MJT Oliveira, MAL Marques          : LibXC Library
   Liviu Ungur et al                             : ANISO software


 Your calculation uses the libint2 library for the computation of 2-el integrals
 For citations please refer to: http://libint.valeyev.net

 Your ORCA version has been built with support for libXC version: 5.1.0
 For citations please refer to: https://tddft.org/programs/libxc/

 This ORCA versions uses:
   CBLAS   interface :  Fast vector & matrix operations
   LAPACKE interface :  Fast linear algebra routines
   SCALAPACK package :  Parallel linear algebra routines
   Shared memory     :  Shared parallel matrices
   BLAS/LAPACK       :  OpenBLAS 0.3.15  USE64BITINT DYNAMIC_ARCH NO_AFFINITY Zen SINGLE_THREADED
        Core in use  :  Zen
   Copyright (c) 2011-2014, The OpenBLAS Project


Your calculation utilizes the SMD solvation module
Please cite in your paper:
A.V. Marenich, C.J. Cramer, D.G. Truhlar J. Phys. Chem. B, 113, (2009), 6378 

================================================================================

----- Orbital basis set information -----
Your calculation utilizes the basis: def2-SVP
   F. Weigend and R. Ahlrichs, Phys. Chem. Chem. Phys. 7, 3297 (2005).

----- AuxJ basis set information -----
Your calculation utilizes the auxiliary basis: def2/J
   F. Weigend, Phys. Chem. Chem. Phys. 8, 1057 (2006).

----- AuxC basis set information -----
Your calculation utilizes the auxiliary basis: def2-SVP/C
  H-La, Hf-Rn : A. Hellweg, C. Hattig, S. Hofener and W. Klopper, Theor. Chem. Acc. 117, 587 (2007).
        Ce-Lu : J. Chmela and M. E. Harding, Mol. Phys. (2018).

================================================================================
                                        WARNINGS
                       Please study these warnings very carefully!
================================================================================

INFO   : Checking CIS options ...
  ===> : (D) CORRECTION FOUND - SETTING MODE=3
  ===> : JK MODE FOUND - ACTIVATING RI-MP2 CODE
  ===> : MP2 AND CIS FOUND - CHECKING
WARNING: CIS(D) and MP2 runs must have the same orbital window
  ===> : adjusting orbital windows

WARNING: No MP2 level density has been requested!
         To caclulate MP2 level properties use
         %mp2 Density relaxed end
         or
         %mp2 Density unrelaxed end
         Otherwise for double-hybrid DFT only the energy is correct!

WARNING: The frozen-core approximation is turned on by default for 
         the MP2 part of double-hybrid DFT.

WARNING: CIS/ROCIS methods need fully converged wavefunctions
  ===> : Setting SCFConvForced true
         You can overwrite this default with %scf ConvForced false 


INFO   : the flag for use of the SHARK integral package has been found!

================================================================================
                                       INPUT FILE
================================================================================
NAME = Cu50_XantPhos-dmbp_M06L_def2SVP_B2PLYP_def2TZVP_RIJCOSX_CPCM.inp
|  1> %maxcore 16000
|  2> %pal
|  3>  nprocs= 8
|  4> end
|  5> ! RI-B2PLYP  def2-SVP def2/J def2-SVP/C RIJCOSX CPCM TIGHTSCF
|  6> 
|  7> %TDDFT 
|  8>     DCORR      4
|  9>     NROOTS    40
| 10>     TDA       FALSE
| 11> END
| 12> 
| 13> %CPCM
| 14>     SMD		TRUE
| 15>     SMDsolvent	"CH2Cl2"
| 16> END
| 17> 
| 18> * xyz 1 1
| 19> P                   1.15653200    0.85817700    1.66642400
| 20> P                   0.00802600   -1.81067000   -0.84647500
| 21> O                   2.28029400   -0.07925400   -0.85943500
| 22> C                   2.18357000   -0.36536700    2.55862700
| 23> C                   1.62348100   -0.98500900    3.68834300
| 24> H                   0.61974900   -0.70279800    4.02439100
| 25> C                   2.33937700   -1.94843000    4.39348800
| 26> H                   1.89667900   -2.41281200    5.27822700
| 27> C                   3.61496500   -2.32477600    3.96732800
| 28> H                   4.17444600   -3.08619500    4.51630500
| 29> C                   4.16912300   -1.72874500    2.83574900
| 30> H                   5.16523400   -2.02090600    2.49395100
| 31> C                   3.46172600   -0.74978100    2.13588300
| 32> H                   3.91913400   -0.28083500    1.26043600
| 33> C                   2.32365100    1.78461000    0.59343600
| 34> C                   2.73537600    3.10250600    0.83351000
| 35> H                   2.44761800    3.60300100    1.76110300
| 36> C                   3.48813700    3.79090100   -0.11631900
| 37> H                   3.79610800    4.81969800    0.08218100
| 38> C                   3.84940000    3.18024300   -1.31809900
| 39> H                   4.43851500    3.73975700   -2.04771600
| 40> C                   3.47332600    1.86246700   -1.59139900
| 41> C                   3.86947700    1.07636500   -2.83758800
| 42> C                   2.68013000    0.19692300   -3.20751700
| 43> C                   2.28463900   -0.12950400   -4.50846300
| 44> H                   2.81278100    0.30280300   -5.36097900
| 45> C                   1.22868700   -1.01461700   -4.73435200
| 46> H                   0.94221100   -1.26372400   -5.75837400
| 47> C                   0.53874300   -1.58805700   -3.66659100
| 48> H                  -0.28860900   -2.27687400   -3.85692200
| 49> C                   0.89225300   -1.26987200   -2.35012900
| 50> C                  -1.39736400   -2.79040900   -1.48091400
| 51> C                  -2.51895100   -2.07657300   -1.93432200
| 52> H                  -2.49853600   -0.98097100   -1.92899300
| 53> C                  -3.64904300   -2.74879400   -2.39231800
| 54> H                  -4.51396000   -2.18055100   -2.74386900
| 55> C                  -3.67778500   -4.14510000   -2.39104000
| 56> H                  -4.56691700   -4.67487300   -2.74116800
| 57> C                  -2.56985200   -4.86178300   -1.93960300
| 58> H                  -2.58794200   -5.95433300   -1.93915400
| 59> C                  -1.43249500   -4.19074800   -1.48780300
| 60> H                  -0.56980400   -4.76457800   -1.13778400
| 61> C                   1.12775700   -3.04030400   -0.08910100
| 62> C                   0.81553000   -3.49824700    1.20004800
| 63> H                  -0.07008600   -3.10962100    1.71479900
| 64> C                   1.62007300   -4.44646600    1.82749400
| 65> H                   1.36319800   -4.79848100    2.82971300
| 66> C                   2.75932300   -4.93272200    1.18376500
| 67> H                   3.39641600   -5.66905500    1.67984700
| 68> C                   3.08635700   -4.46979500   -0.09035000
| 69> H                   3.97868700   -4.84488400   -0.59748800
| 70> C                   2.27371400   -3.53174000   -0.72783400
| 71> H                   2.53554300   -3.18595700   -1.73206000
| 72> C                   1.96145400   -0.38412700   -2.16080600
| 73> C                   2.71327600    1.20147200   -0.62133000
| 74> C                   4.28952600    1.98573300   -3.98246100
| 75> H                   3.48369100    2.66909500   -4.28786800
| 76> H                   4.58794500    1.39763400   -4.86032800
| 77> H                   5.16256800    2.59100300   -3.70475800
| 78> C                   5.04613800    0.15255600   -2.46737300
| 79> H                   5.34466800   -0.45683600   -3.33297400
| 80> H                   4.78865700   -0.53430200   -1.64736500
| 81> H                   5.91703900    0.74455800   -2.14975600
| 82> C                   0.72626100    2.07767700    2.96022300
| 83> C                   1.57535200    2.37665700    4.03606600
| 84> H                   2.53521200    1.86110000    4.13647700
| 85> C                   1.20405900    3.33442400    4.97769100
| 86> H                   1.87104100    3.56065900    5.81308300
| 87> C                  -0.01390600    4.00599600    4.85311600
| 88> H                  -0.30233200    4.75561900    5.59393200
| 89> C                  -0.86324200    3.71581200    3.78568300
| 90> H                  -1.81932900    4.23524900    3.68735700
| 91> C                  -0.49725400    2.75221100    2.84603200
| 92> H                  -1.16760600    2.51318300    2.01320900
| 93> Cu                 -0.56304600    0.03999100    0.42417400
| 94> C                  -3.45491400    0.63111800    0.31227000
| 95> C                  -4.83182800    0.45955400    0.40087400
| 96> C                  -5.35034200   -0.56889000    1.20017000
| 97> C                  -4.45077600   -1.38977400    1.89648300
| 98> C                  -3.09328200   -1.13979800    1.74862200
| 99> C                  -2.83812200    1.67338600   -0.54046200
|100> C                  -3.57770500    2.68893300   -1.13620400
|101> C                  -2.92761300    3.63744300   -1.93862100
|102> C                  -1.53998400    3.52661200   -2.11153700
|103> C                  -0.88592800    2.48075200   -1.47439300
|104> H                  -5.52567300    1.09332300   -0.15159400
|105> H                  -4.78503700   -2.20540200    2.53684800
|106> H                  -2.36494400   -1.76337400    2.27741100
|107> H                  -4.65433000    2.77776300   -0.98964100
|108> H                  -0.97241000    4.22924200   -2.72077200
|109> H                   0.19843000    2.36779100   -1.58747000
|110> N                  -2.59106400   -0.16773400    0.98210900
|111> N                  -1.49890400    1.57388600   -0.70887900
|112> O                  -3.68870700    4.58863000   -2.48270700
|113> O                  -6.67830900   -0.69370900    1.23323000
|114> C                  -3.06538700    5.56519900   -3.30163800
|115> H                  -3.85957900    6.23621900   -3.64254100
|116> H                  -2.32129500    6.14629700   -2.73709000
|117> H                  -2.58278300    5.10595700   -4.17707000
|118> C                  -7.23965100   -1.74013000    2.00937500
|119> H                  -8.32476800   -1.66707400    1.88866700
|120> H                  -6.90394300   -2.72610400    1.65509300
|121> H                  -6.98891200   -1.63009600    3.07483000
|122> *
|123> 
|124>                          ****END OF INPUT****
================================================================================

                       ****************************
                       * Single Point Calculation *
                       ****************************

---------------------------------
CARTESIAN COORDINATES (ANGSTROEM)
---------------------------------
  P      1.156532    0.858177    1.666424
  P      0.008026   -1.810670   -0.846475
  O      2.280294   -0.079254   -0.859435
  C      2.183570   -0.365367    2.558627
  C      1.623481   -0.985009    3.688343
  H      0.619749   -0.702798    4.024391
  C      2.339377   -1.948430    4.393488
  H      1.896679   -2.412812    5.278227
  C      3.614965   -2.324776    3.967328
  H      4.174446   -3.086195    4.516305
  C      4.169123   -1.728745    2.835749
  H      5.165234   -2.020906    2.493951
  C      3.461726   -0.749781    2.135883
  H      3.919134   -0.280835    1.260436
  C      2.323651    1.784610    0.593436
  C      2.735376    3.102506    0.833510
  H      2.447618    3.603001    1.761103
  C      3.488137    3.790901   -0.116319
  H      3.796108    4.819698    0.082181
  C      3.849400    3.180243   -1.318099
  H      4.438515    3.739757   -2.047716
  C      3.473326    1.862467   -1.591399
  C      3.869477    1.076365   -2.837588
  C      2.680130    0.196923   -3.207517
  C      2.284639   -0.129504   -4.508463
  H      2.812781    0.302803   -5.360979
  C      1.228687   -1.014617   -4.734352
  H      0.942211   -1.263724   -5.758374
  C      0.538743   -1.588057   -3.666591
  H     -0.288609   -2.276874   -3.856922
  C      0.892253   -1.269872   -2.350129
  C     -1.397364   -2.790409   -1.480914
  C     -2.518951   -2.076573   -1.934322
  H     -2.498536   -0.980971   -1.928993
  C     -3.649043   -2.748794   -2.392318
  H     -4.513960   -2.180551   -2.743869
  C     -3.677785   -4.145100   -2.391040
  H     -4.566917   -4.674873   -2.741168
  C     -2.569852   -4.861783   -1.939603
  H     -2.587942   -5.954333   -1.939154
  C     -1.432495   -4.190748   -1.487803
  H     -0.569804   -4.764578   -1.137784
  C      1.127757   -3.040304   -0.089101
  C      0.815530   -3.498247    1.200048
  H     -0.070086   -3.109621    1.714799
  C      1.620073   -4.446466    1.827494
  H      1.363198   -4.798481    2.829713
  C      2.759323   -4.932722    1.183765
  H      3.396416   -5.669055    1.679847
  C      3.086357   -4.469795   -0.090350
  H      3.978687   -4.844884   -0.597488
  C      2.273714   -3.531740   -0.727834
  H      2.535543   -3.185957   -1.732060
  C      1.961454   -0.384127   -2.160806
  C      2.713276    1.201472   -0.621330
  C      4.289526    1.985733   -3.982461
  H      3.483691    2.669095   -4.287868
  H      4.587945    1.397634   -4.860328
  H      5.162568    2.591003   -3.704758
  C      5.046138    0.152556   -2.467373
  H      5.344668   -0.456836   -3.332974
  H      4.788657   -0.534302   -1.647365
  H      5.917039    0.744558   -2.149756
  C      0.726261    2.077677    2.960223
  C      1.575352    2.376657    4.036066
  H      2.535212    1.861100    4.136477
  C      1.204059    3.334424    4.977691
  H      1.871041    3.560659    5.813083
  C     -0.013906    4.005996    4.853116
  H     -0.302332    4.755619    5.593932
  C     -0.863242    3.715812    3.785683
  H     -1.819329    4.235249    3.687357
  C     -0.497254    2.752211    2.846032
  H     -1.167606    2.513183    2.013209
  Cu    -0.563046    0.039991    0.424174
  C     -3.454914    0.631118    0.312270
  C     -4.831828    0.459554    0.400874
  C     -5.350342   -0.568890    1.200170
  C     -4.450776   -1.389774    1.896483
  C     -3.093282   -1.139798    1.748622
  C     -2.838122    1.673386   -0.540462
  C     -3.577705    2.688933   -1.136204
  C     -2.927613    3.637443   -1.938621
  C     -1.539984    3.526612   -2.111537
  C     -0.885928    2.480752   -1.474393
  H     -5.525673    1.093323   -0.151594
  H     -4.785037   -2.205402    2.536848
  H     -2.364944   -1.763374    2.277411
  H     -4.654330    2.777763   -0.989641
  H     -0.972410    4.229242   -2.720772
  H      0.198430    2.367791   -1.587470
  N     -2.591064   -0.167734    0.982109
  N     -1.498904    1.573886   -0.708879
  O     -3.688707    4.588630   -2.482707
  O     -6.678309   -0.693709    1.233230
  C     -3.065387    5.565199   -3.301638
  H     -3.859579    6.236219   -3.642541
  H     -2.321295    6.146297   -2.737090
  H     -2.582783    5.105957   -4.177070
  C     -7.239651   -1.740130    2.009375
  H     -8.324768   -1.667074    1.888667
  H     -6.903943   -2.726104    1.655093
  H     -6.988912   -1.630096    3.074830

----------------------------
CARTESIAN COORDINATES (A.U.)
----------------------------
  NO LB      ZA    FRAG     MASS         X           Y           Z
   0 P    15.0000    0    30.974    2.185529    1.621720    3.149085
   1 P    15.0000    0    30.974    0.015167   -3.421670   -1.599606
   2 O     8.0000    0    15.999    4.309131   -0.149768   -1.624097
   3 C     6.0000    0    12.011    4.126349   -0.690444    4.835104
   4 C     6.0000    0    12.011    3.067934   -1.861397    6.969958
   5 H     1.0000    0     1.008    1.171156   -1.328096    7.604997
   6 C     6.0000    0    12.011    4.420782   -3.681999    8.302489
   7 H     1.0000    0     1.008    3.584204   -4.559554    9.974404
   8 C     6.0000    0    12.011    6.831294   -4.393190    7.497163
   9 H     1.0000    0     1.008    7.888560   -5.832063    8.534580
  10 C     6.0000    0    12.011    7.878501   -3.266855    5.358789
  11 H     1.0000    0     1.008    9.760878   -3.818959    4.712884
  12 C     6.0000    0    12.011    6.541714   -1.416881    4.036234
  13 H     1.0000    0     1.008    7.406090   -0.530701    2.381879
  14 C     6.0000    0    12.011    4.391064    3.372424    1.121432
  15 C     6.0000    0    12.011    5.169112    5.862887    1.575106
  16 H     1.0000    0     1.008    4.625328    6.808685    3.328002
  17 C     6.0000    0    12.011    6.591624    7.163765   -0.219811
  18 H     1.0000    0     1.008    7.173604    9.107909    0.155300
  19 C     6.0000    0    12.011    7.274312    6.009788   -2.490846
  20 H     1.0000    0     1.008    8.387578    7.067117   -3.869622
  21 C     6.0000    0    12.011    6.563635    3.519553   -3.007308
  22 C     6.0000    0    12.011    7.312252    2.034035   -5.362264
  23 C     6.0000    0    12.011    5.064712    0.372131   -6.061329
  24 C     6.0000    0    12.011    4.317342   -0.244727   -8.519760
  25 H     1.0000    0     1.008    5.315386    0.572215  -10.130782
  26 C     6.0000    0    12.011    2.321882   -1.917348   -8.946629
  27 H     1.0000    0     1.008    1.780521   -2.388092  -10.881750
  28 C     6.0000    0    12.011    1.018077   -3.000993   -6.928853
  29 H     1.0000    0     1.008   -0.545392   -4.302668   -7.288526
  30 C     6.0000    0    12.011    1.686114   -2.399710   -4.441100
  31 C     6.0000    0    12.011   -2.640635   -5.273109   -2.798522
  32 C     6.0000    0    12.011   -4.760128   -3.924154   -3.655339
  33 H     1.0000    0     1.008   -4.721549   -1.853767   -3.645268
  34 C     6.0000    0    12.011   -6.895692   -5.194468   -4.520826
  35 H     1.0000    0     1.008   -8.530148   -4.120644   -5.185161
  36 C     6.0000    0    12.011   -6.950006   -7.833104   -4.518411
  37 H     1.0000    0     1.008   -8.630222   -8.834230   -5.180057
  38 C     6.0000    0    12.011   -4.856316   -9.187438   -3.665318
  39 H     1.0000    0     1.008   -4.890502  -11.252059   -3.664470
  40 C     6.0000    0    12.011   -2.707023   -7.919366   -2.811540
  41 H     1.0000    0     1.008   -1.076774   -9.003748   -2.150100
  42 C     6.0000    0    12.011    2.131152   -5.745342   -0.168376
  43 C     6.0000    0    12.011    1.541128   -6.610729    2.267762
  44 H     1.0000    0     1.008   -0.132443   -5.876332    3.240500
  45 C     6.0000    0    12.011    3.061494   -8.402603    3.453463
  46 H     1.0000    0     1.008    2.576071   -9.067815    5.347383
  47 C     6.0000    0    12.011    5.214365   -9.321494    2.236992
  48 H     1.0000    0     1.008    6.418296  -10.712961    3.174451
  49 C     6.0000    0    12.011    5.832369   -8.446688   -0.170737
  50 H     1.0000    0     1.008    7.518629   -9.155504   -1.129089
  51 C     6.0000    0    12.011    4.296697   -6.674021   -1.375407
  52 H     1.0000    0     1.008    4.791482   -6.020586   -3.273119
  53 C     6.0000    0    12.011    3.706611   -0.725895   -4.083332
  54 C     6.0000    0    12.011    5.127349    2.270453   -1.174144
  55 C     6.0000    0    12.011    8.106029    3.752492   -7.525761
  56 H     1.0000    0     1.008    6.583222    5.043859   -8.102896
  57 H     1.0000    0     1.008    8.669960    2.641145   -9.184689
  58 H     1.0000    0     1.008    9.755840    4.896286   -7.000978
  59 C     6.0000    0    12.011    9.535819    0.288289   -4.662659
  60 H     1.0000    0     1.008   10.099959   -0.863295   -6.298408
  61 H     1.0000    0     1.008    9.049250   -1.009684   -3.113069
  62 H     1.0000    0     1.008   11.181583    1.407011   -4.062450
  63 C     6.0000    0    12.011    1.372434    3.926241    5.594011
  64 C     6.0000    0    12.011    2.976984    4.491231    7.627059
  65 H     1.0000    0     1.008    4.790856    3.516969    7.816809
  66 C     6.0000    0    12.011    2.275342    6.301148    9.406473
  67 H     1.0000    0     1.008    3.535755    6.728670   10.985135
  68 C     6.0000    0    12.011   -0.026279    7.570235    9.171060
  69 H     1.0000    0     1.008   -0.571325    8.986818   10.570999
  70 C     6.0000    0    12.011   -1.631291    7.021867    7.153904
  71 H     1.0000    0     1.008   -3.438034    8.003461    6.968095
  72 C     6.0000    0    12.011   -0.939674    5.200925    5.378221
  73 H     1.0000    0     1.008   -2.206456    4.749228    3.804414
  74 Cu   29.0000    0    63.550   -1.064003    0.075572    0.801573
  75 C     6.0000    0    12.011   -6.528841    1.192640    0.590105
  76 C     6.0000    0    12.011   -9.130832    0.868431    0.757542
  77 C     6.0000    0    12.011  -10.110681   -1.075046    2.267993
  78 C     6.0000    0    12.011   -8.410748   -2.626292    3.583833
  79 C     6.0000    0    12.011   -5.845456   -2.153906    3.304417
  80 C     6.0000    0    12.011   -5.363273    3.162241   -1.021325
  81 C     6.0000    0    12.011   -6.760883    5.081347   -2.147114
  82 C     6.0000    0    12.011   -5.532387    6.873771   -3.663463
  83 C     6.0000    0    12.011   -2.910148    6.664331   -3.990227
  84 C     6.0000    0    12.011   -1.674161    4.687942   -2.786199
  85 H     1.0000    0     1.008  -10.442009    2.066081   -0.286471
  86 H     1.0000    0     1.008   -9.042409   -4.167606    4.793948
  87 H     1.0000    0     1.008   -4.469096   -3.332294    4.303683
  88 H     1.0000    0     1.008   -8.795409    5.249211   -1.870150
  89 H     1.0000    0     1.008   -1.837589    7.992109   -5.141514
  90 H     1.0000    0     1.008    0.374978    4.474477   -2.999884
  91 N     7.0000    0    14.007   -4.896401   -0.316971    1.855917
  92 N     7.0000    0    14.007   -2.832518    2.974214   -1.339587
  93 O     8.0000    0    15.999   -6.970646    8.671254   -4.691636
  94 O     8.0000    0    15.999  -12.620175   -1.310920    2.330467
  95 C     6.0000    0    12.011   -5.792742   10.516702   -6.239192
  96 H     1.0000    0     1.008   -7.293547   11.784746   -6.883405
  97 H     1.0000    0     1.008   -4.386612   11.614818   -5.172351
  98 H     1.0000    0     1.008   -4.880753    9.648860   -7.893518
  99 C     6.0000    0    12.011  -13.680958   -3.288369    3.797168
 100 H     1.0000    0     1.008  -15.731532   -3.150313    3.569063
 101 H     1.0000    0     1.008  -13.046562   -5.151590    3.127672
 102 H     1.0000    0     1.008  -13.207130   -3.080435    5.810587

--------------------------------
INTERNAL COORDINATES (ANGSTROEM)
--------------------------------
 P      0   0   0     0.000000000000     0.00000000     0.00000000
 P      1   0   0     3.841415328449     0.00000000     0.00000000
 O      2   1   0     2.856776363400    49.01109160     0.00000000
 C      1   2   3     1.829724888225    91.27276974   271.85259960
 C      4   1   2     1.404960546329   117.59676807   264.16268162
 H      5   4   1     1.095467587220   119.88846615   357.87829900
 C      5   4   1     1.392090721570   120.49878227   178.45875955
 H      7   5   4     1.092883918469   119.72390467   179.19395097
 C      7   5   4     1.396557697720   120.10881666   358.84548817
 H      9   7   5     1.092773366006   120.13932866   180.44156202
 C      9   7   5     1.393849014480   119.71158766     0.19092205
 H     11   9   7     1.092895716455   120.12913854   180.23807404
 C     11   9   7     1.395920286714   120.36060504     0.64356294
 H     13  11   9     1.093407462563   119.35419300   178.95753518
 C      1   2   3     1.836232041926    99.10852539    17.66955684
 C     15   1   2     1.401428866521   124.13115112   159.27339899
 H     16  15   1     1.092578914879   119.92347901     6.85338336
 C     16  15   1     1.393812013288   120.42327020   188.16898317
 H     18  16  15     1.092095075554   119.58442252   179.59951115
 C     18  16  15     1.395596401734   120.69824235   359.73150731
 H     20  18  16     1.091995130992   119.39409550   179.93008510
 C     20  18  16     1.397375443341   120.75635122   359.51228941
 C     22  20  18     1.525738835098   125.15189107   183.14514408
 C     23  22  20     1.524733413687   107.02611976   215.96962453
 C     24  23  22     1.398366265442   125.51880887   144.88386029
 H     25  24  23     1.092065403110   119.80659691   356.52633621
 C     25  24  23     1.396239767874   120.82300343   175.85841202
 H     27  25  24     1.092128130079   119.64796026   180.60110970
 C     27  25  24     1.394621708513   120.72631510     0.36446139
 H     29  27  25     1.093254810625   120.01107888   179.78032747
 C     29  27  25     1.399743980794   120.11013984     0.61260095
 C      2   1   3     1.826888722649   146.07455908   201.82668150
 C     32   2   1     1.404670085084   116.98833354    55.77247173
 H     33  32   2     1.095805143659   119.44896430     2.32670929
 C     33  32   2     1.392389793600   120.58952535   182.11298641
 H     35  33  32     1.092963690860   119.80647493   180.10740988
 C     35  33  32     1.396602370571   119.93927445     0.61728485
 H     37  35  33     1.092613729246   120.08066366   179.42797234
 C     37  35  33     1.394613000064   119.85003008   359.54117986
 H     39  37  35     1.092699845429   120.05321881   180.13027399
 C     39  37  35     1.395704895984   120.33779057     0.05686418
 H     41  39  37     1.093631533352   119.61380831   180.09071082
 C      2   1   3     1.827405992710    90.75486658    83.43317700
 C     43   2   1     1.403247175297   117.64612076    69.24902293
 H     44  43   2     1.095588636000   119.71829359   359.52926788
 C     44  43   2     1.392873717796   120.49640930   179.28440292
 H     46  44  43     1.092859666110   119.77645688   180.29725209
 C     46  44  43     1.395966505858   120.05258602     1.06774480
 H     48  46  44     1.092781372582   120.07675337   179.37423083
 C     48  46  44     1.394496926390   119.80720540   359.77880090
 H     50  48  46     1.092764173033   120.10457511   179.81495770
 C     50  48  46     1.395249683293   120.26835577   359.46308668
 H     52  50  48     1.093887639297   119.50898475   180.71907715
 C      3   2   1     1.374108063935    71.65537101   207.31020684
 C      3   2   1     1.372744146017   144.64064814   317.30009931
 C     23  22  20     1.521225002409   112.23491870   339.46058676
 H     56  23  22     1.099830489629   112.21583414   299.85888627
 H     56  23  22     1.097982150607   110.89070378   178.91446951
 H     56  23  22     1.098031448945   111.02197260    60.92492087
 C     23  22  20     1.541107823492   108.11239463    99.91741643
 H     60  23  22     1.099883567367   110.50565569   178.29469366
 H     60  23  22     1.100219749681   111.99890964    58.20448382
 H     60  23  22     1.099916123390   110.56541116   297.92807446
 C      1   2   3     1.829270137471   148.81642573   152.72782323
 C     64   1   2     1.402776791699   122.83020649   147.49632731
 H     65  64   1     1.094172111128   120.06269759   359.04940932
 C     65  64   1     1.393496953266   120.22870944   178.76732832
 H     67  65  64     1.092669692640   119.75457658   179.95126133
 C     67  65  64     1.396412053455   120.17629030   359.76877766
 H     69  67  65     1.092672204031   119.97923793   179.93257065
 C     69  67  65     1.394629558069   119.95987969     0.15873208
 H     71  69  67     1.092513226837   120.19287574   179.68546027
 C     71  69  67     1.394782458001   119.97234813     0.20108898
 H     73  71  69     1.095490911882   120.15443948   179.25265258
 Cu     1   2   3     2.273667058120    33.53604384   130.43094221
 C     34  33  32     2.921771664243   123.31766527   268.10238932
 C     76  34  33     1.390387369875   107.75562244   292.84837894
 C     77  76  34     1.401937204353   119.54608787    90.22622292
 C     78  77  76     1.402826191579   118.36549467     0.46493116
 C     79  78  77     1.388214981886   117.95789845   359.69828453
 C     76  34  33     1.481184262309    79.06616726   172.10142837
 C     81  76  34     1.390405427802   122.62450198   115.09322318
 C     82  81  76     1.402199654276   119.51523690   180.40929461
 C     83  82  81     1.402746482889   118.40639507   359.93135714
 C     84  83  82     1.388367698944   117.96733213   359.91926946
 H     77  76  34     1.090093996135   121.75553054   271.42505244
 H     79  78  77     1.089516766154   122.21289713   179.85204098
 H     80  79  78     1.094961678115   119.76641823   180.09047968
 H     82  81  76     1.090180201845   121.81757946     1.05552966
 H     84  83  82     1.089493665700   122.22966523   180.04209371
 H     85  84  83     1.096074298400   119.75895094   180.14421424
 N     80  79  78     1.335916733479   124.03886141   359.85390247
 N     85  84  83     1.335723475398   123.93545725     0.09043940
 O     83  82  81     1.334185279937   116.81763970   180.05234373
 O     78  77  76     1.334229777606   116.79980264   180.75660472
 C     94  83  82     1.418753966311   118.39186746   180.04646450
 H     96  94  83     1.094177146843   106.44385443   179.79176754
 H     96  94  83     1.100028287987   111.38075084   298.58161256
 H     96  94  83     1.100086824757   111.39098126    61.02651031
 C     95  78  77     1.418627086739   118.45048990   178.73217941
 H    100  95  78     1.094251572578   106.42689578   180.58234286
 H    100  95  78     1.100163772110   111.35471927   299.34716483
 H    100  95  78     1.100078126454   111.46422661    61.80983508

---------------------------
INTERNAL COORDINATES (A.U.)
---------------------------
 P      0   0   0     0.000000000000     0.00000000     0.00000000
 P      1   0   0     7.259222937417     0.00000000     0.00000000
 O      2   1   0     5.398524952685    49.01109160     0.00000000
 C      1   2   3     3.457678939164    91.27276974   271.85259960
 C      4   1   2     2.654990661526   117.59676807   264.16268162
 H      5   4   1     2.070133728433   119.88846615   357.87829900
 C      5   4   1     2.630670217341   120.49878227   178.45875955
 H      7   5   4     2.065251302074   119.72390467   179.19395097
 C      7   5   4     2.639111578910   120.10881666   358.84548817
 H      9   7   5     2.065042388194   120.13932866   180.44156202
 C      9   7   5     2.633992909403   119.71158766     0.19092205
 H     11   9   7     2.065273597036   120.12913854   180.23807404
 C     11   9   7     2.637907046675   120.36060504     0.64356294
 H     13  11   9     2.066240657030   119.35419300   178.95753518
 C      1   2   3     3.469975677570    99.10852539    17.66955684
 C     15   1   2     2.648316753895   124.13115112   159.27339899
 H     16  15   1     2.064674928818   119.92347901     6.85338336
 C     16  15   1     2.633922987284   120.42327020   188.16898317
 H     18  16  15     2.063760605002   119.58442252   179.59951115
 C     18  16  15     2.637294992763   120.69824235   359.73150731
 H     20  18  16     2.063571737150   119.39409550   179.93008510
 C     20  18  16     2.640656894181   120.75635122   359.51228941
 C     22  20  18     2.883228550223   125.15189107   183.14514408
 C     23  22  20     2.881328579108   107.02611976   215.96962453
 C     24  23  22     2.642529276599   125.51880887   144.88386029
 H     25  24  23     2.063704532208   119.80659691   356.52633621
 C     25  24  23     2.638510778572   120.82300343   175.85841202
 H     27  25  24     2.063823069000   119.64796026   180.60110970
 C     27  25  24     2.635453089512   120.72631510     0.36446139
 H     29  27  25     2.065952186673   120.01107888   179.78032747
 C     29  27  25     2.645132781305   120.11013984     0.61260095
 C      2   1   3     3.452319362956   146.07455908   201.82668150
 C     32   2   1     2.654441769320   116.98833354    55.77247173
 H     33  32   2     2.070771617658   119.44896430     2.32670929
 C     33  32   2     2.631235381571   120.58952535   182.11298641
 H     35  33  32     2.065402050046   119.80647493   180.10740988
 C     35  33  32     2.639195998364   119.93927445     0.61728485
 H     37  35  33     2.064740718437   120.08066366   179.42797234
 C     37  35  33     2.635436632927   119.85003008   359.54117986
 H     39  37  35     2.064903454439   120.05321881   180.13027399
 C     39  37  35     2.637500017183   120.33779057     0.05686418
 H     41  39  37     2.066664089456   119.61380831   180.09071082
 C      2   1   3     3.453296861709    90.75486658    83.43317700
 C     43   2   1     2.651752859510   117.64612076    69.24902293
 H     44  43   2     2.070362477477   119.71829359   359.52926788
 C     44  43   2     2.632149865771   120.49640930   179.28440292
 H     46  44  43     2.065205471757   119.77645688   180.29725209
 C     46  44  43     2.637994388198   120.05258602     1.06774480
 H     48  46  44     2.065057518430   120.07675337   179.37423083
 C     48  46  44     2.635217285471   119.80720540   359.77880090
 H     50  48  46     2.065025015994   120.10457511   179.81495770
 C     50  48  46     2.636639789865   120.26835577   359.46308668
 H     52  50  48     2.067148059552   119.50898475   180.71907715
 C      3   2   1     2.596687919249    71.65537101   207.31020684
 C      3   2   1     2.594110487916   144.64064814   317.30009931
 C     23  22  20     2.874698642627   112.23491870   339.46058676
 H     56  23  22     2.078378419136   112.21583414   299.85888627
 H     56  23  22     2.074885564581   110.89070378   178.91446951
 H     56  23  22     2.074978724939   111.02197260    60.92492087
 C     23  22  20     2.912271729243   108.11239463    99.91741643
 H     60  23  22     2.078478721525   110.50565569   178.29469366
 H     60  23  22     2.079114014029   111.99890964    58.20448382
 H     60  23  22     2.078540243492   110.56541116   297.92807446
 C      1   2   3     3.456819584780   148.81642573   152.72782323
 C     64   1   2     2.650863963332   122.83020649   147.49632731
 H     65  64   1     2.067685633406   120.06269759   359.04940932
 C     65  64   1     2.633327610127   120.22870944   178.76732832
 H     67  65  64     2.064846473925   119.75457658   179.95126133
 C     67  65  64     2.638836351136   120.17629030   359.76877766
 H     69  67  65     2.064851219766   119.97923793   179.93257065
 C     69  67  65     2.635467923023   119.95987969     0.15873208
 H     71  69  67     2.064550796409   120.19287574   179.68546027
 C     71  69  67     2.635756862019   119.97234813     0.20108898
 H     73  71  69     2.070177805657   120.15443948   179.25265258
 Cu     1   2   3     4.296608059565    33.53604384   130.43094221
 C     34  33  32     5.521348271271   123.31766527   268.10238932
 C     76  34  33     2.627451349127   107.75562244   292.84837894
 C     77  76  34     2.649277373182   119.54608787    90.22622292
 C     78  77  76     2.650957315577   118.36549467     0.46493116
 C     79  78  77     2.623346130771   117.95789845   359.69828453
 C     76  34  33     2.799032609638    79.06616726   172.10142837
 C     81  76  34     2.627485473664   122.62450198   115.09322318
 C     82  81  76     2.649773331662   119.51523690   180.40929461
 C     83  82  81     2.650806687982   118.40639507   359.93135714
 C     84  83  82     2.623634724187   117.96733213   359.91926946
 H     77  76  34     2.059979112927   121.75553054   271.42505244
 H     79  78  77     2.058888306346   122.21289713   179.85204098
 H     80  79  78     2.069177698777   119.76641823   180.09047968
 H     82  81  76     2.060142018109   121.81757946     1.05552966
 H     84  83  82     2.058844652815   122.22966523   180.04209371
 H     85  84  83     2.071280246407   119.75895094   180.14421424
 N     80  79  78     2.524516763998   124.03886141   359.85390247
 N     85  84  83     2.524151559151   123.93545725     0.09043940
 O     83  82  81     2.521244790990   116.81763970   180.05234373
 O     78  77  76     2.521328879398   116.79980264   180.75660472
 C     94  83  82     2.681056447742   118.39186746   180.04646450
 H     96  94  83     2.067695149528   106.44385443   179.79176754
 H     96  94  83     2.078752203862   111.38075084   298.58161256
 H     96  94  83     2.078862822326   111.39098126    61.02651031
 C     95  78  77     2.680816680100   118.45048990   178.73217941
 H    100  95  78     2.067835793785   106.42689578   180.58234286
 H    100  95  78     2.079008231750   111.35471927   299.34716483
 H    100  95  78     2.078846384915   111.46422661    61.80983508

---------------------
BASIS SET INFORMATION
---------------------
There are 6 groups of distinct atoms

 Group   1 Type P   : 10s7p1d contracted to 4s3p1d pattern {5311/511/1}
 Group   2 Type O   : 7s4p1d contracted to 3s2p1d pattern {511/31/1}
 Group   3 Type C   : 7s4p1d contracted to 3s2p1d pattern {511/31/1}
 Group   4 Type H   : 4s1p contracted to 2s1p pattern {31/1}
 Group   5 Type Cu  : 14s9p5d1f contracted to 5s3p2d1f pattern {63311/531/41/1}
 Group   6 Type N   : 7s4p1d contracted to 3s2p1d pattern {511/31/1}

Atom   0P    basis set group =>   1
Atom   1P    basis set group =>   1
Atom   2O    basis set group =>   2
Atom   3C    basis set group =>   3
Atom   4C    basis set group =>   3
Atom   5H    basis set group =>   4
Atom   6C    basis set group =>   3
Atom   7H    basis set group =>   4
Atom   8C    basis set group =>   3
Atom   9H    basis set group =>   4
Atom  10C    basis set group =>   3
Atom  11H    basis set group =>   4
Atom  12C    basis set group =>   3
Atom  13H    basis set group =>   4
Atom  14C    basis set group =>   3
Atom  15C    basis set group =>   3
Atom  16H    basis set group =>   4
Atom  17C    basis set group =>   3
Atom  18H    basis set group =>   4
Atom  19C    basis set group =>   3
Atom  20H    basis set group =>   4
Atom  21C    basis set group =>   3
Atom  22C    basis set group =>   3
Atom  23C    basis set group =>   3
Atom  24C    basis set group =>   3
Atom  25H    basis set group =>   4
Atom  26C    basis set group =>   3
Atom  27H    basis set group =>   4
Atom  28C    basis set group =>   3
Atom  29H    basis set group =>   4
Atom  30C    basis set group =>   3
Atom  31C    basis set group =>   3
Atom  32C    basis set group =>   3
Atom  33H    basis set group =>   4
Atom  34C    basis set group =>   3
Atom  35H    basis set group =>   4
Atom  36C    basis set group =>   3
Atom  37H    basis set group =>   4
Atom  38C    basis set group =>   3
Atom  39H    basis set group =>   4
Atom  40C    basis set group =>   3
Atom  41H    basis set group =>   4
Atom  42C    basis set group =>   3
Atom  43C    basis set group =>   3
Atom  44H    basis set group =>   4
Atom  45C    basis set group =>   3
Atom  46H    basis set group =>   4
Atom  47C    basis set group =>   3
Atom  48H    basis set group =>   4
Atom  49C    basis set group =>   3
Atom  50H    basis set group =>   4
Atom  51C    basis set group =>   3
Atom  52H    basis set group =>   4
Atom  53C    basis set group =>   3
Atom  54C    basis set group =>   3
Atom  55C    basis set group =>   3
Atom  56H    basis set group =>   4
Atom  57H    basis set group =>   4
Atom  58H    basis set group =>   4
Atom  59C    basis set group =>   3
Atom  60H    basis set group =>   4
Atom  61H    basis set group =>   4
Atom  62H    basis set group =>   4
Atom  63C    basis set group =>   3
Atom  64C    basis set group =>   3
Atom  65H    basis set group =>   4
Atom  66C    basis set group =>   3
Atom  67H    basis set group =>   4
Atom  68C    basis set group =>   3
Atom  69H    basis set group =>   4
Atom  70C    basis set group =>   3
Atom  71H    basis set group =>   4
Atom  72C    basis set group =>   3
Atom  73H    basis set group =>   4
Atom  74Cu   basis set group =>   5
Atom  75C    basis set group =>   3
Atom  76C    basis set group =>   3
Atom  77C    basis set group =>   3
Atom  78C    basis set group =>   3
Atom  79C    basis set group =>   3
Atom  80C    basis set group =>   3
Atom  81C    basis set group =>   3
Atom  82C    basis set group =>   3
Atom  83C    basis set group =>   3
Atom  84C    basis set group =>   3
Atom  85H    basis set group =>   4
Atom  86H    basis set group =>   4
Atom  87H    basis set group =>   4
Atom  88H    basis set group =>   4
Atom  89H    basis set group =>   4
Atom  90H    basis set group =>   4
Atom  91N    basis set group =>   6
Atom  92N    basis set group =>   6
Atom  93O    basis set group =>   2
Atom  94O    basis set group =>   2
Atom  95C    basis set group =>   3
Atom  96H    basis set group =>   4
Atom  97H    basis set group =>   4
Atom  98H    basis set group =>   4
Atom  99C    basis set group =>   3
Atom 100H    basis set group =>   4
Atom 101H    basis set group =>   4
Atom 102H    basis set group =>   4
---------------------------------
AUXILIARY/J BASIS SET INFORMATION
---------------------------------
There are 6 groups of distinct atoms

 Group   1 Type P   : 14s5p5d2f1g contracted to 8s4p3d1f1g pattern {71111111/2111/311/2/1}
 Group   2 Type O   : 12s5p4d2f1g contracted to 6s4p3d1f1g pattern {711111/2111/211/2/1}
 Group   3 Type C   : 12s5p4d2f1g contracted to 6s4p3d1f1g pattern {711111/2111/211/2/1}
 Group   4 Type H   : 5s2p1d contracted to 3s1p1d pattern {311/2/1}
 Group   5 Type Cu  : 19s5p5d3f3g contracted to 8s5p4d3f3g pattern {121111111/11111/2111/111/111}
 Group   6 Type N   : 12s5p4d2f1g contracted to 6s4p3d1f1g pattern {711111/2111/211/2/1}

Atom   0P    basis set group =>   1
Atom   1P    basis set group =>   1
Atom   2O    basis set group =>   2
Atom   3C    basis set group =>   3
Atom   4C    basis set group =>   3
Atom   5H    basis set group =>   4
Atom   6C    basis set group =>   3
Atom   7H    basis set group =>   4
Atom   8C    basis set group =>   3
Atom   9H    basis set group =>   4
Atom  10C    basis set group =>   3
Atom  11H    basis set group =>   4
Atom  12C    basis set group =>   3
Atom  13H    basis set group =>   4
Atom  14C    basis set group =>   3
Atom  15C    basis set group =>   3
Atom  16H    basis set group =>   4
Atom  17C    basis set group =>   3
Atom  18H    basis set group =>   4
Atom  19C    basis set group =>   3
Atom  20H    basis set group =>   4
Atom  21C    basis set group =>   3
Atom  22C    basis set group =>   3
Atom  23C    basis set group =>   3
Atom  24C    basis set group =>   3
Atom  25H    basis set group =>   4
Atom  26C    basis set group =>   3
Atom  27H    basis set group =>   4
Atom  28C    basis set group =>   3
Atom  29H    basis set group =>   4
Atom  30C    basis set group =>   3
Atom  31C    basis set group =>   3
Atom  32C    basis set group =>   3
Atom  33H    basis set group =>   4
Atom  34C    basis set group =>   3
Atom  35H    basis set group =>   4
Atom  36C    basis set group =>   3
Atom  37H    basis set group =>   4
Atom  38C    basis set group =>   3
Atom  39H    basis set group =>   4
Atom  40C    basis set group =>   3
Atom  41H    basis set group =>   4
Atom  42C    basis set group =>   3
Atom  43C    basis set group =>   3
Atom  44H    basis set group =>   4
Atom  45C    basis set group =>   3
Atom  46H    basis set group =>   4
Atom  47C    basis set group =>   3
Atom  48H    basis set group =>   4
Atom  49C    basis set group =>   3
Atom  50H    basis set group =>   4
Atom  51C    basis set group =>   3
Atom  52H    basis set group =>   4
Atom  53C    basis set group =>   3
Atom  54C    basis set group =>   3
Atom  55C    basis set group =>   3
Atom  56H    basis set group =>   4
Atom  57H    basis set group =>   4
Atom  58H    basis set group =>   4
Atom  59C    basis set group =>   3
Atom  60H    basis set group =>   4
Atom  61H    basis set group =>   4
Atom  62H    basis set group =>   4
Atom  63C    basis set group =>   3
Atom  64C    basis set group =>   3
Atom  65H    basis set group =>   4
Atom  66C    basis set group =>   3
Atom  67H    basis set group =>   4
Atom  68C    basis set group =>   3
Atom  69H    basis set group =>   4
Atom  70C    basis set group =>   3
Atom  71H    basis set group =>   4
Atom  72C    basis set group =>   3
Atom  73H    basis set group =>   4
Atom  74Cu   basis set group =>   5
Atom  75C    basis set group =>   3
Atom  76C    basis set group =>   3
Atom  77C    basis set group =>   3
Atom  78C    basis set group =>   3
Atom  79C    basis set group =>   3
Atom  80C    basis set group =>   3
Atom  81C    basis set group =>   3
Atom  82C    basis set group =>   3
Atom  83C    basis set group =>   3
Atom  84C    basis set group =>   3
Atom  85H    basis set group =>   4
Atom  86H    basis set group =>   4
Atom  87H    basis set group =>   4
Atom  88H    basis set group =>   4
Atom  89H    basis set group =>   4
Atom  90H    basis set group =>   4
Atom  91N    basis set group =>   6
Atom  92N    basis set group =>   6
Atom  93O    basis set group =>   2
Atom  94O    basis set group =>   2
Atom  95C    basis set group =>   3
Atom  96H    basis set group =>   4
Atom  97H    basis set group =>   4
Atom  98H    basis set group =>   4
Atom  99C    basis set group =>   3
Atom 100H    basis set group =>   4
Atom 101H    basis set group =>   4
Atom 102H    basis set group =>   4
---------------------------------
AUXILIARY/C BASIS SET INFORMATION
---------------------------------
There are 6 groups of distinct atoms

 Group   1 Type P   : 10s7p7d3f contracted to 8s5p5d2f pattern {31111111/31111/31111/12}
 Group   2 Type O   : 8s6p5d3f contracted to 6s5p4d1f pattern {311111/21111/2111/3}
 Group   3 Type C   : 8s6p5d3f contracted to 6s5p4d1f pattern {311111/21111/2111/3}
 Group   4 Type H   : 4s3p2d contracted to 3s2p1d pattern {211/21/2}
 Group   5 Type Cu  : 9s9p6d4f3g2h contracted to 9s9p6d4f3g2h pattern {111111111/111111111/111111/1111/111/11}
 Group   6 Type N   : 8s6p5d3f contracted to 6s5p4d1f pattern {311111/21111/2111/3}

Atom   0P    basis set group =>   1
Atom   1P    basis set group =>   1
Atom   2O    basis set group =>   2
Atom   3C    basis set group =>   3
Atom   4C    basis set group =>   3
Atom   5H    basis set group =>   4
Atom   6C    basis set group =>   3
Atom   7H    basis set group =>   4
Atom   8C    basis set group =>   3
Atom   9H    basis set group =>   4
Atom  10C    basis set group =>   3
Atom  11H    basis set group =>   4
Atom  12C    basis set group =>   3
Atom  13H    basis set group =>   4
Atom  14C    basis set group =>   3
Atom  15C    basis set group =>   3
Atom  16H    basis set group =>   4
Atom  17C    basis set group =>   3
Atom  18H    basis set group =>   4
Atom  19C    basis set group =>   3
Atom  20H    basis set group =>   4
Atom  21C    basis set group =>   3
Atom  22C    basis set group =>   3
Atom  23C    basis set group =>   3
Atom  24C    basis set group =>   3
Atom  25H    basis set group =>   4
Atom  26C    basis set group =>   3
Atom  27H    basis set group =>   4
Atom  28C    basis set group =>   3
Atom  29H    basis set group =>   4
Atom  30C    basis set group =>   3
Atom  31C    basis set group =>   3
Atom  32C    basis set group =>   3
Atom  33H    basis set group =>   4
Atom  34C    basis set group =>   3
Atom  35H    basis set group =>   4
Atom  36C    basis set group =>   3
Atom  37H    basis set group =>   4
Atom  38C    basis set group =>   3
Atom  39H    basis set group =>   4
Atom  40C    basis set group =>   3
Atom  41H    basis set group =>   4
Atom  42C    basis set group =>   3
Atom  43C    basis set group =>   3
Atom  44H    basis set group =>   4
Atom  45C    basis set group =>   3
Atom  46H    basis set group =>   4
Atom  47C    basis set group =>   3
Atom  48H    basis set group =>   4
Atom  49C    basis set group =>   3
Atom  50H    basis set group =>   4
Atom  51C    basis set group =>   3
Atom  52H    basis set group =>   4
Atom  53C    basis set group =>   3
Atom  54C    basis set group =>   3
Atom  55C    basis set group =>   3
Atom  56H    basis set group =>   4
Atom  57H    basis set group =>   4
Atom  58H    basis set group =>   4
Atom  59C    basis set group =>   3
Atom  60H    basis set group =>   4
Atom  61H    basis set group =>   4
Atom  62H    basis set group =>   4
Atom  63C    basis set group =>   3
Atom  64C    basis set group =>   3
Atom  65H    basis set group =>   4
Atom  66C    basis set group =>   3
Atom  67H    basis set group =>   4
Atom  68C    basis set group =>   3
Atom  69H    basis set group =>   4
Atom  70C    basis set group =>   3
Atom  71H    basis set group =>   4
Atom  72C    basis set group =>   3
Atom  73H    basis set group =>   4
Atom  74Cu   basis set group =>   5
Atom  75C    basis set group =>   3
Atom  76C    basis set group =>   3
Atom  77C    basis set group =>   3
Atom  78C    basis set group =>   3
Atom  79C    basis set group =>   3
Atom  80C    basis set group =>   3
Atom  81C    basis set group =>   3
Atom  82C    basis set group =>   3
Atom  83C    basis set group =>   3
Atom  84C    basis set group =>   3
Atom  85H    basis set group =>   4
Atom  86H    basis set group =>   4
Atom  87H    basis set group =>   4
Atom  88H    basis set group =>   4
Atom  89H    basis set group =>   4
Atom  90H    basis set group =>   4
Atom  91N    basis set group =>   6
Atom  92N    basis set group =>   6
Atom  93O    basis set group =>   2
Atom  94O    basis set group =>   2
Atom  95C    basis set group =>   3
Atom  96H    basis set group =>   4
Atom  97H    basis set group =>   4
Atom  98H    basis set group =>   4
Atom  99C    basis set group =>   3
Atom 100H    basis set group =>   4
Atom 101H    basis set group =>   4
Atom 102H    basis set group =>   4


           ************************************************************
           *        Program running with 8 parallel MPI-processes     *
           *              working on a common directory               *
           ************************************************************
------------------------------------------------------------------------------
                           ORCA GTO INTEGRAL CALCULATION
                           -- RI-GTO INTEGRALS CHOSEN --
------------------------------------------------------------------------------
------------------------------------------------------------------------------
                   ___                                                        
                  /   \      - P O W E R E D   B Y -                         
                 /     \                                                     
                 |  |  |   _    _      __       _____    __    __             
                 |  |  |  | |  | |    /  \     |  _  \  |  |  /  |          
                  \  \/   | |  | |   /    \    | | | |  |  | /  /          
                 / \  \   | |__| |  /  /\  \   | |_| |  |  |/  /          
                |  |  |   |  __  | /  /__\  \  |    /   |      \           
                |  |  |   | |  | | |   __   |  |    \   |  |\   \          
                \     /   | |  | | |  |  |  |  | |\  \  |  | \   \       
                 \___/    |_|  |_| |__|  |__|  |_| \__\ |__|  \__/        
                                                                              
                      - O R C A' S   B I G   F R I E N D -                    
                                      &                                       
                       - I N T E G R A L  F E E D E R -                       
                                                                              
 v1 FN, 2020, v2 2021                                                         
------------------------------------------------------------------------------


Reading SHARK input file Cu50_XantPhos-dmbp_M06L_def2SVP_B2PLYP_def2TZVP_RIJCOSX_CPCM.SHARKINP.tmp ... ok
----------------------
SHARK INTEGRAL PACKAGE
----------------------

Number of atoms                             ...    103
Number of basis functions                   ...   1071
Number of shells                            ...    495
Maximum angular momentum                    ...      3
Integral batch strategy                     ... SHARK/LIBINT Hybrid
RI-J (if used) integral strategy            ... SPLIT-RIJ (Revised 2003 algorithm where possible)
Printlevel                                  ...      1
Contraction scheme used                     ... SEGMENTED contraction
Coulomb Range Separation                    ... NOT USED
Exchange Range Separation                   ... NOT USED
Finite Nucleus Model                        ... NOT USED
Auxiliary Coulomb fitting basis             ... AVAILABLE
   # of basis functions in Aux-J            ...   3421
   # of shells in Aux-J                     ...   1117
   Maximum angular momentum in Aux-J        ...      4
Auxiliary J/K fitting basis                 ... NOT available
Auxiliary Correlation fitting basis         ... AVAILABLE
   # of basis functions in Aux-C            ...   3571
   # of shells in Aux-C                     ...   1233
   Maximum angular momentum in Aux-C        ...      5
Auxiliary 'external' fitting basis          ... NOT available
Integral threshold                          ...     2.500000e-11
Primitive cut-off                           ...     2.500000e-12
Primitive pair pre-selection threshold      ...     2.500000e-12

Calculating pre-screening integrals         ... done (  0.1 sec) Dimension = 495
Organizing shell pair data                  ... done (  0.9 sec)
Shell pair information
Total number of shell pairs                 ...    122760
Shell pairs after pre-screening             ...     65450
Total number of primitive shell pairs       ...    459349
Primitive shell pairs kept                  ...    137049
          la=0 lb=0:  20212 shell pairs
          la=1 lb=0:  24703 shell pairs
          la=1 lb=1:   7673 shell pairs
          la=2 lb=0:   7444 shell pairs
          la=2 lb=1:   4567 shell pairs
          la=2 lb=2:    588 shell pairs
          la=3 lb=0:    147 shell pairs
          la=3 lb=1:     93 shell pairs
          la=3 lb=2:     22 shell pairs
          la=3 lb=3:      1 shell pairs

Calculating one electron integrals          ... done (  0.2 sec)
Calculating RI/J V-Matrix + Cholesky decomp.... done (  0.7 sec)
Calculating RI/C V-Matrix + Cholesky decomp.... done (  0.8 sec)
Calculating Nuclear repulsion               ... done (  0.0 sec) ENN=  10476.757797181084 Eh

SHARK setup successfully completed in   3.6 seconds

Maximum memory used throughout the entire GTOINT-calculation: 118.7 MB


           ************************************************************
           *        Program running with 8 parallel MPI-processes     *
           *              working on a common directory               *
           ************************************************************
-------------------------------------------------------------------------------
                                 ORCA SCF
-------------------------------------------------------------------------------

------------
SCF SETTINGS
------------
Hamiltonian:
 Density Functional     Method          .... DFT(GTOs)
 Exchange Functional    Exchange        .... B88
   X-Alpha parameter    XAlpha          ....  0.666667
   Becke's b parameter  XBeta           ....  0.004200
 Correlation Functional Correlation     .... LYP
 LDA part of GGA corr.  LDAOpt          .... VWN-3
 Gradients option       PostSCFGGA      .... off
 Hybrid DFT is turned on
   Fraction HF Exchange ScalHFX         ....  0.530000
   Scaling of DF-GGA-X  ScalDFX         ....  0.470000
   Scaling of DF-GGA-C  ScalDFC         ....  0.730000
   Scaling of DF-LDA-C  ScalLDAC        ....  0.730000
   Perturbative correction              ....  0.270000
   Density functional embedding theory  .... OFF
   NL short-range parameter             ....  7.800000
 RI-approximation to the Coulomb term is turned on
   Number of AuxJ basis functions       .... 3421
   RIJ-COSX (HFX calculated with COS-X)).... on


General Settings:
 Integral files         IntName         .... Cu50_XantPhos-dmbp_M06L_def2SVP_B2PLYP_def2TZVP_RIJCOSX_CPCM
 Hartree-Fock type      HFTyp           .... RHF
 Total Charge           Charge          ....    1
 Multiplicity           Mult            ....    1
 Number of Electrons    NEL             ....  446
 Basis Dimension        Dim             .... 1071
 Nuclear Repulsion      ENuc            ....  10476.7577971811 Eh

Convergence Acceleration:
 DIIS                   CNVDIIS         .... on
   Start iteration      DIISMaxIt       ....    12
   Startup error        DIISStart       ....  0.200000
   # of expansion vecs  DIISMaxEq       ....     5
   Bias factor          DIISBfac        ....   1.050
   Max. coefficient     DIISMaxC        ....  10.000
 Trust-Rad. Augm. Hess. CNVTRAH         .... auto
   Auto Start mean grad. ratio tolernc. ....  1.125000
   Auto Start start iteration           ....    20
   Auto Start num. interpolation iter.  ....    10
   Max. Number of Micro iterations      ....    16
   Max. Number of Macro iterations      .... Maxiter - #DIIS iter
   Number of Davidson start vectors     ....     2
   Converg. threshold I  (grad. norm)   ....   1.000e-05
   Converg. threshold II (energy diff.) ....   1.000e-08
   Grad. Scal. Fac. for Micro threshold ....   0.100
   Minimum threshold for Micro iter.    ....   0.010
   NR start threshold (gradient norm)   ....   0.001
   Initial trust radius                 ....   0.400
   Minimum AH scaling param. (alpha)    ....   1.000
   Maximum AH scaling param. (alpha)    .... 1000.000
   Orbital update algorithm             .... Taylor
   White noise on init. David. guess    .... on
   Maximum white noise                  ....   0.010
   Quad. conv. algorithm                .... NR
 SOSCF                  CNVSOSCF        .... off
 Level Shifting         CNVShift        .... on
   Level shift para.    LevelShift      ....    0.2500
   Turn off err/grad.   ShiftErr        ....    0.0010
 Zerner damping         CNVZerner       .... off
 Static damping         CNVDamp         .... on
   Fraction old density DampFac         ....    0.7000
   Max. Damping (<1)    DampMax         ....    0.9800
   Min. Damping (>=0)   DampMin         ....    0.0000
   Turn off err/grad.   DampErr         ....    0.1000
 Fernandez-Rico         CNVRico         .... off

SCF Procedure:
 Maximum # iterations   MaxIter         ....   125
 SCF integral mode      SCFMode         .... Direct
   Integral package                     .... SHARK and LIBINT hybrid scheme
 Reset frequency        DirectResetFreq ....    20
 Integral Threshold     Thresh          ....  2.500e-11 Eh
 Primitive CutOff       TCut            ....  2.500e-12 Eh

Convergence Tolerance:
 Convergence Check Mode ConvCheckMode   .... Total+1el-Energy
 Convergence forced     ConvForced      .... 1
 Energy Change          TolE            ....  1.000e-08 Eh
 1-El. energy change                    ....  1.000e-05 Eh
 DIIS Error             TolErr          ....  5.000e-07


Diagonalization of the overlap matrix:
Smallest eigenvalue                        ... 1.836e-04
Time for diagonalization                   ...    0.301 sec
Threshold for overlap eigenvalues          ... 1.000e-08
Number of eigenvalues below threshold      ... 0
Time for construction of square roots      ...    0.147 sec
Total time needed                          ...    0.456 sec

Time for model grid setup =    3.132 sec

------------------------------
INITIAL GUESS: MODEL POTENTIAL
------------------------------
Loading Hartree-Fock densities                     ... done
Calculating cut-offs                               ... done
Initializing the effective Hamiltonian             ... done
Setting up the integral package (SHARK)            ... done
Starting the Coulomb interaction                   ... done (   3.3 sec)
Reading the grid                                   ... done
Mapping shells                                     ... done
Starting the XC term evaluation                    ... done (   0.9 sec)
  promolecular density results
     # of electrons  =    446.983879333
     EX              =   -424.344757108
     EC              =     -5.399930509
     EX+EC           =   -429.744687617
Transforming the Hamiltonian                       ... done (   0.1 sec)
Diagonalizing the Hamiltonian                      ... done (   0.2 sec)
Back transforming the eigenvectors                 ... done (   0.1 sec)
Now organizing SCF variables                       ... done
                      ------------------
                      INITIAL GUESS DONE (   7.8 sec)
                      ------------------
-------------------
DFT GRID GENERATION
-------------------

General Integration Accuracy     IntAcc      ... 4.388
Radial Grid Type                 RadialGrid  ... OptM3 with GC (2021)
Angular Grid (max. ang.)         AngularGrid ... 4 (Lebedev-302)
Angular grid pruning method      GridPruning ... 4 (adaptive)
Weight generation scheme         WeightScheme... Becke
Basis function cutoff            BFCut       ... 1.0000e-11
Integration weight cutoff        WCut        ... 1.0000e-14
Angular grids for H and He will be reduced by one unit
Partially contracted basis set               ... off
Rotationally invariant grid construction     ... off

Total number of grid points                  ...   494038
Total number of batches                      ...     7771
Average number of points per batch           ...       63
Average number of grid points per atom       ...     4796
Time for grid setup =   11.722 sec

--------------------
COSX GRID GENERATION
--------------------

GRIDX 1
-------
General Integration Accuracy     IntAcc      ... 3.816
Radial Grid Type                 RadialGrid  ... OptM3 with GC (2021)
Angular Grid (max. ang.)         AngularGrid ... 1 (Lebedev-50)
Angular grid pruning method      GridPruning ... 4 (adaptive)
Weight generation scheme         WeightScheme... Becke
Basis function cutoff            BFCut       ... 1.0000e-11
Integration weight cutoff        WCut        ... 1.0000e-14
Angular grids for H and He will be reduced by one unit
Partially contracted basis set               ... on
Rotationally invariant grid construction     ... off

Total number of grid points                  ...    62224
Total number of batches                      ...     1018
Average number of points per batch           ...       61
Average number of grid points per atom       ...      604
UseSFitting                                  ... on

GRIDX 2
-------
General Integration Accuracy     IntAcc      ... 4.020
Radial Grid Type                 RadialGrid  ... OptM3 with GC (2021)
Angular Grid (max. ang.)         AngularGrid ... 2 (Lebedev-110)
Angular grid pruning method      GridPruning ... 4 (adaptive)
Weight generation scheme         WeightScheme... Becke
Basis function cutoff            BFCut       ... 1.0000e-11
Integration weight cutoff        WCut        ... 1.0000e-14
Angular grids for H and He will be reduced by one unit
Partially contracted basis set               ... on
Rotationally invariant grid construction     ... off

Total number of grid points                  ...   132946
Total number of batches                      ...     2134
Average number of points per batch           ...       62
Average number of grid points per atom       ...     1291
UseSFitting                                  ... on

GRIDX 3
-------
General Integration Accuracy     IntAcc      ... 4.338
Radial Grid Type                 RadialGrid  ... OptM3 with GC (2021)
Angular Grid (max. ang.)         AngularGrid ... 3 (Lebedev-194)
Angular grid pruning method      GridPruning ... 4 (adaptive)
Weight generation scheme         WeightScheme... Becke
Basis function cutoff            BFCut       ... 1.0000e-11
Integration weight cutoff        WCut        ... 1.0000e-14
Angular grids for H and He will be reduced by one unit
Partially contracted basis set               ... on
Rotationally invariant grid construction     ... off

Total number of grid points                  ...   289411
Total number of batches                      ...     4574
Average number of points per batch           ...       63
Average number of grid points per atom       ...     2810
UseSFitting                                  ... on

Time for X-Grid setup             =   12.114 sec


--------------------
CPCM SOLVATION MODEL
--------------------
CPCM parameters:
  Epsilon                                         ...       8.9300
  Refrac                                          ...       1.4242
  Rsolv                                           ...       1.3000
  Surface type                                    ... GAUSSIAN VDW
  Epsilon function type                           ...         CPCM
Solvent:                                     ... CH2CL2
SMD-CDS solvent descriptors:
  Soln                                       ...    1.4242
  Soln25                                     ...    1.4212
  Sola                                       ...    0.1000
  Solb                                       ...    0.0500
  Solg                                       ...   39.1500
  Solc                                       ...    0.0000
  Solh                                       ...    0.6670
Radii:
 Radius for P  used is    4.0062 Bohr (=   2.1200 Ang.)
 Radius for O  used is    3.9949 Bohr (=   2.1140 Ang.)
 Radius for C  used is    3.4960 Bohr (=   1.8500 Ang.)
 Radius for H  used is    2.2677 Bohr (=   1.2000 Ang.)
 Radius for Cu used is    3.5149 Bohr (=   1.8600 Ang.)
 Radius for N  used is    3.5716 Bohr (=   1.8900 Ang.)
Calculating surface                               ...        done! (  0.0s)
GEPOL surface points                              ...         5740
GEPOL Volume                                      ...    5605.7112
GEPOL Surface-area                                ...    2848.7566
Calculating surface distance matrix               ...        done! (  0.3s)
Performing Cholesky decomposition & store         ...        done! (  1.7s)
Overall time for CPCM initialization              ...                 2.0s
--------------
SCF ITERATIONS
--------------
ITER       Energy         Delta-E        Max-DP      RMS-DP      [F,P]     Damp
               ***  Starting incremental Fock matrix formation  ***
  0  -4619.3027031493   0.000000000000 0.12042937  0.00111067  0.1609622 0.7000
  1  -4619.7543942743  -0.451691125021 0.10994891  0.00084065  0.0948621 0.7000
                               ***Turning on DIIS***
  2  -4619.9972236381  -0.242829363840 0.29788345  0.00187772  0.0481215 0.0000
  3  -4620.4096724643  -0.412448826180 0.04293634  0.00035671  0.0420339 0.0000
  4  -4620.4620374246  -0.052364960341 0.01547556  0.00010605  0.0060417 0.0000
  5  -4620.4638372631  -0.001799838422 0.00917098  0.00004571  0.0059140 0.0000
  6  -4620.4641476695  -0.000310406409 0.00208174  0.00002064  0.0028648 0.0000
  7  -4620.4642004958  -0.000052826334 0.00235423  0.00000954  0.0026242 0.0000
  8  -4620.4642145267  -0.000014030858 0.00050839  0.00000481  0.0010755 0.0000
  9  -4620.4642189628  -0.000004436117 0.00051275  0.00000388  0.0002384 0.0000
               *** Restarting incremental Fock matrix formation ***
                                   *** Resetting DIIS ***
 10  -4620.4639836497   0.000235313035 0.00141660  0.00001569  0.0000965 0.0000
 11  -4620.4639855840  -0.000001934259 0.00012210  0.00000162  0.0000734 0.0000
 12  -4620.4639856916  -0.000000107591 0.00007117  0.00000075  0.0001197 0.0000
 13  -4620.4639857449  -0.000000053294 0.00004512  0.00000029  0.0000707 0.0000
 14  -4620.4639857661  -0.000000021244 0.00002303  0.00000016  0.0000583 0.0000
 15  -4620.4639857659   0.000000000215 0.00000466  0.00000005  0.0000102 0.0000
 16  -4620.4639856390   0.000000126873 0.00000347  0.00000003  0.0000014 0.0000
 17  -4620.4639856424  -0.000000003355 0.00000123  0.00000001  0.0000012 0.0000
                            ***DIIS convergence achieved***

               *****************************************************
               *                     SUCCESS                       *
               *           SCF CONVERGED AFTER  18 CYCLES          *
               *****************************************************

Old exchange energy                            =   -227.105530402 Eh
New exchange energy                            =   -227.105731505 Eh
Exchange energy change after final integration =     -0.000201103 Eh
Total energy after final integration           =  -4620.464186756 Eh
Final COS-X integration done in                =   115.288 sec

SMD CDS free energy correction energy :               -15.44052     Kcal/mol
Total Energy after SMD CDS correction =             -4620.488792790 Eh

----------------
TOTAL SCF ENERGY
----------------

Total Energy       :        -4620.48879279 Eh         -125729.89204 eV

Components:
Nuclear Repulsion  :        10476.75779718 Eh          285087.07321 eV
Electronic Energy  :       -15097.24658997 Eh         -410816.96524 eV
One Electron Energy:       -27202.68013395 Eh         -740222.55863 eV
Two Electron Energy:        12105.43354398 Eh          329405.59339 eV
Max COSX asymmetry :            0.00003047 Eh               0.00083 eV
CPCM Dielectric    :           -0.07301483 Eh              -1.98683 eV
SMD CDS (Gcds)     :           -0.02460603 Eh              -0.66956 eV

Virial components:
Potential Energy   :        -9216.56829718 Eh         -250795.57357 eV
Kinetic Energy     :         4596.07950439 Eh          125065.68153 eV
Virial Ratio       :            2.00531089


DFT components:
N(Alpha)           :      223.000104068925 electrons
N(Beta)            :      223.000104068925 electrons
N(Total)           :      446.000208137851 electrons
E(X)               :     -201.779868523899 Eh       
E(C)               :      -11.530750171821 Eh       
E(XC)              :     -213.310618695720 Eh       
DFET-embed. en.    :        0.000000000000 Eh       
CPCM Solvation Model Properties:
Surface-charge          :           -1.07306199
Charge-correction       :            0.00527085 Eh               0.14343 eV
Free-energy (cav+disp)  :           -0.02460603 Eh              -0.66956 eV

---------------
SCF CONVERGENCE
---------------

  Last Energy change         ...   -1.0088e-08  Tolerance :   1.0000e-08
  Last MAX-Density change    ...    0.0000e+00  Tolerance :   1.0000e-07
  Last RMS-Density change    ...    0.0000e+00  Tolerance :   5.0000e-09
  Last DIIS Error            ...    2.8964e-07  Tolerance :   5.0000e-07

             **** THE GBW FILE WAS UPDATED (Cu50_XantPhos-dmbp_M06L_def2SVP_B2PLYP_def2TZVP_RIJCOSX_CPCM.gbw) ****
             **** DENSITY Cu50_XantPhos-dmbp_M06L_def2SVP_B2PLYP_def2TZVP_RIJCOSX_CPCM.scfp WAS UPDATED ****
             **** ENERGY FILE WAS UPDATED (Cu50_XantPhos-dmbp_M06L_def2SVP_B2PLYP_def2TZVP_RIJCOSX_CPCM.en.tmp) ****
             **** THE GBW FILE WAS UPDATED (Cu50_XantPhos-dmbp_M06L_def2SVP_B2PLYP_def2TZVP_RIJCOSX_CPCM.gbw) ****
             **** DENSITY Cu50_XantPhos-dmbp_M06L_def2SVP_B2PLYP_def2TZVP_RIJCOSX_CPCM.scfp WAS UPDATED ****
----------------
ORBITAL ENERGIES
----------------

  NO   OCC          E(Eh)            E(eV) 
   0   2.0000    -325.428238     -8855.3526 
   1   2.0000     -78.289896     -2130.3764 
   2   2.0000     -78.286065     -2130.2721 
   3   2.0000     -39.649961     -1078.9303 
   4   2.0000     -34.698126      -944.1840 
   5   2.0000     -34.698032      -944.1815 
   6   2.0000     -34.697731      -944.1733 
   7   2.0000     -19.794353      -538.6317 
   8   2.0000     -19.781257      -538.2754 
   9   2.0000     -19.781146      -538.2724 
  10   2.0000     -14.875263      -404.7765 
  11   2.0000     -14.875194      -404.7746 
  12   2.0000     -10.728098      -291.9264 
  13   2.0000     -10.728033      -291.9246 
  14   2.0000     -10.709708      -291.4260 
  15   2.0000     -10.708093      -291.3820 
  16   2.0000     -10.698961      -291.1335 
  17   2.0000     -10.698582      -291.1232 
  18   2.0000     -10.689518      -290.8766 
  19   2.0000     -10.688972      -290.8617 
  20   2.0000     -10.686154      -290.7850 
  21   2.0000     -10.686130      -290.7844 
  22   2.0000     -10.659785      -290.0675 
  23   2.0000     -10.651317      -289.8371 
  24   2.0000     -10.650528      -289.8156 
  25   2.0000     -10.650384      -289.8117 
  26   2.0000     -10.650215      -289.8071 
  27   2.0000     -10.649550      -289.7890 
  28   2.0000     -10.649298      -289.7821 
  29   2.0000     -10.648424      -289.7583 
  30   2.0000     -10.648311      -289.7553 
  31   2.0000     -10.647399      -289.7305 
  32   2.0000     -10.647115      -289.7227 
  33   2.0000     -10.647071      -289.7215 
  34   2.0000     -10.646387      -289.7029 
  35   2.0000     -10.646272      -289.6998 
  36   2.0000     -10.645777      -289.6863 
  37   2.0000     -10.645607      -289.6817 
[...]
   220a -> 226a  :     0.018790 
   220a -> 230a  :     0.012787 
   221a -> 224a  :     0.011423 
   221a -> 226a  :     0.053689 
   221a -> 228a  :     0.031036 
   222a -> 228a  :     0.011059 
   222a -> 232a  :     0.016146 
   222a -> 233a  :     0.100077 

STATE 33:  E=   0.156430 au      4.257 eV    34332.5 cm**-1 <S**2> =   0.000000
   203a -> 223a  :     0.021733 
   204a -> 223a  :     0.038279 
   206a -> 223a  :     0.011311 
   213a -> 223a  :     0.085856 
   215a -> 223a  :     0.016061 
   216a -> 224a  :     0.031271 
   216a -> 225a  :     0.041394 
   216a -> 226a  :     0.012205 
   217a -> 224a  :     0.021487 
   217a -> 225a  :     0.039340 
   218a -> 225a  :     0.046648 
   219a -> 224a  :     0.067312 
   219a -> 225a  :     0.056132 
   219a -> 226a  :     0.012767 
   219a -> 239a  :     0.010717 
   220a -> 224a  :     0.010589 
   220a -> 226a  :     0.024188 
   221a -> 225a  :     0.010560 
   221a -> 226a  :     0.053260 
   221a -> 227a  :     0.028286 
   222a -> 229a  :     0.023576 

STATE 34:  E=   0.170266 au      4.633 eV    37369.1 cm**-1 <S**2> =   0.000000
   206a -> 224a  :     0.014341 
   207a -> 224a  :     0.033609 
   208a -> 226a  :     0.033528 
   209a -> 224a  :     0.015125 
   210a -> 224a  :     0.018770 
   211a -> 223a  :     0.014353 
   212a -> 224a  :     0.021279 
   215a -> 224a  :     0.021331 
   216a -> 225a  :     0.014434 
   216a -> 226a  :     0.014606 
   217a -> 225a  :     0.027978 
   218a -> 224a  :     0.010979 
   219a -> 224a  :     0.057514 
   219a -> 225a  :     0.025349 
   219a -> 231a  :     0.019094 
   219a -> 239a  :     0.012915 
   220a -> 224a  :     0.040156 
   220a -> 228a  :     0.020912 
   220a -> 235a  :     0.011793 
   220a -> 236a  :     0.011118 
   220a -> 237a  :     0.025171 
   221a -> 225a  :     0.012658 
   221a -> 226a  :     0.027837 
   221a -> 228a  :     0.016232 
   221a -> 236a  :     0.012776 
   221a -> 237a  :     0.032270 
   222a -> 233a  :     0.028815 
   222a -> 235a  :     0.011011 

STATE 35:  E=   0.148813 au      4.049 eV    32660.6 cm**-1 <S**2> =   0.000000
   204a -> 223a  :     0.199119 
   204a -> 225a  :     0.011316 
   206a -> 223a  :     0.062412 
   207a -> 223a  :     0.018381 
   209a -> 223a  :     0.022506 
   210a -> 223a  :     0.011609 
   211a -> 223a  :     0.115267 
   213a -> 223a  :     0.032933 
   214a -> 223a  :     0.041552 
   215a -> 223a  :     0.136415 
   216a -> 224a  :     0.011869 
   216a -> 225a  :     0.013118 
   217a -> 223a  :     0.017367 
   217a -> 225a  :     0.011901 
   218a -> 223a  :     0.011515 
   218a -> 225a  :     0.015590 
   219a -> 224a  :     0.010029 
   219a -> 225a  :     0.026046 
   220a -> 223a  :     0.037855 
   221a -> 225a  :     0.017082 
   221a -> 227a  :     0.018937 

STATE 36:  E=   0.180990 au      4.925 eV    39722.7 cm**-1 <S**2> =   0.000000
   210a -> 227a  :     0.015471 
   213a -> 225a  :     0.011394 
   213a -> 227a  :     0.036822 
   213a -> 228a  :     0.013987 
   215a -> 228a  :     0.021247 
   216a -> 224a  :     0.013820 
   217a -> 224a  :     0.014239 
   219a -> 231a  :     0.023835 
   220a -> 225a  :     0.010183 
   221a -> 225a  :     0.016124 
   221a -> 227a  :     0.022386 
   221a -> 230a  :     0.015995 
   222a -> 232a  :     0.012673 
   222a -> 233a  :     0.028956 
   222a -> 234a  :     0.281551 
   222a -> 235a  :     0.020473 
   222a -> 237a  :     0.013494 

STATE 37:  E=   0.175694 au      4.781 eV    38560.4 cm**-1 <S**2> =   0.000000
   204a -> 223a  :     0.031337 
   210a -> 227a  :     0.028195 
   212a -> 223a  :     0.010511 
   213a -> 227a  :     0.014711 
   213a -> 228a  :     0.010445 
   214a -> 223a  :     0.011255 
   215a -> 223a  :     0.028181 
   215a -> 227a  :     0.012439 
   215a -> 234a  :     0.010347 
   216a -> 223a  :     0.024821 
   217a -> 223a  :     0.014607 
   218a -> 223a  :     0.015366 
   218a -> 228a  :     0.019751 
   219a -> 231a  :     0.094892 
   221a -> 224a  :     0.013134 
   221a -> 225a  :     0.084844 
   222a -> 233a  :     0.025636 
   222a -> 234a  :     0.013611 
   222a -> 235a  :     0.038645 

STATE 38:  E=   0.186496 au      5.075 eV    40931.2 cm**-1 <S**2> =   0.000000
   202a -> 223a  :     0.089495 
   205a -> 225a  :     0.023134 
   206a -> 226a  :     0.012922 
   208a -> 225a  :     0.014371 
   210a -> 223a  :     0.012926 
   210a -> 225a  :     0.031178 
   210a -> 231a  :     0.013513 
   211a -> 231a  :     0.043547 
   213a -> 223a  :     0.011855 
   213a -> 225a  :     0.023546 
   213a -> 231a  :     0.031437 
   214a -> 225a  :     0.013115 
   219a -> 224a  :     0.067725 
   220a -> 228a  :     0.011702 
   221a -> 228a  :     0.013001 
   221a -> 230a  :     0.010035 
   222a -> 233a  :     0.092456 
   222a -> 235a  :     0.067215 

STATE 39:  E=   0.168559 au      4.587 eV    36994.5 cm**-1 <S**2> =   0.000000
   202a -> 223a  :     0.012298 
   204a -> 223a  :     0.155246 
   206a -> 223a  :     0.022339 
   207a -> 223a  :     0.038225 
   211a -> 223a  :     0.016562 
   212a -> 223a  :     0.104495 
   214a -> 223a  :     0.012401 
   215a -> 223a  :     0.221713 
   216a -> 223a  :     0.045986 
   217a -> 223a  :     0.048241 
   218a -> 223a  :     0.047759 
   222a -> 233a  :     0.028237 
   222a -> 234a  :     0.014368 

STATE 40:  E=   0.178289 au      4.851 eV    39129.9 cm**-1 <S**2> =   0.000000
   206a -> 227a  :     0.019281 
   207a -> 228a  :     0.011068 
   209a -> 227a  :     0.014768 
   215a -> 228a  :     0.010285 
   216a -> 223a  :     0.012889 
   217a -> 223a  :     0.012509 
   219a -> 231a  :     0.041678 
   220a -> 226a  :     0.034788 
   221a -> 224a  :     0.019149 
   221a -> 227a  :     0.134586 
   221a -> 229a  :     0.033324 
   221a -> 233a  :     0.015119 
   222a -> 233a  :     0.032848 
   222a -> 234a  :     0.027541 
   222a -> 235a  :     0.135798 


-------------------------
TD-DFT-EXCITATION SPECTRA
-------------------------

Center of mass = ( -0.0209, -0.0051,  0.0234)
Calculating the Dipole integrals                  ... done
Transforming integrals                            ... done
Calculating the Linear Momentum integrals         ... done
Transforming integrals                            ... done
Calculating angular momentum integrals            ... done
Transforming integrals                            ... done

-----------------------------------------------------------------------------
         ABSORPTION SPECTRUM VIA TRANSITION ELECTRIC DIPOLE MOMENTS
-----------------------------------------------------------------------------
State   Energy    Wavelength  fosc         T2        TX        TY        TZ  
        (cm-1)      (nm)                 (au**2)    (au)      (au)      (au) 
-----------------------------------------------------------------------------
   1   18606.4    537.4   0.070394097   1.24552  -0.99989   0.47337  -0.14718
   2   19634.2    509.3   0.006059015   0.10159   0.24613  -0.18010  -0.09261
   3   27778.9    360.0   0.015130208   0.17931  -0.21397  -0.33672  -0.14194
   4   37414.4    267.3   0.182564321   1.60640  -0.46967  -0.98016   0.65199
   5   24808.4    403.1   0.004820363   0.06397   0.00271   0.23126  -0.10236
   6   30749.2    325.2   0.267457137   2.86349   0.84034   0.94314  -1.12596
   7   29915.6    334.3   0.074668996   0.82171  -0.53838  -0.48294  -0.54647
   8   34314.8    291.4   0.060595486   0.58135  -0.37880   0.33354  -0.57150
   9   29600.9    337.8   0.131052453   1.45753  -1.19544  -0.01483   0.16804
  10   34110.0    293.2   0.145508739   1.40437  -0.38597   0.48973  -1.00775
  11   36574.7    273.4   0.045249402   0.40729   0.31041   0.28295  -0.48049
  12   37558.4    266.3   0.044104191   0.38659  -0.04283  -0.58787  -0.19791
  13   35512.2    281.6   0.154583118   1.43304   0.43197  -1.11184   0.10124
  14   37071.1    269.8   0.009092289   0.08074  -0.05177   0.25697  -0.10968
  15   35927.1    278.3   0.100667796   0.92245  -0.23420  -0.56892  -0.73751
  16   39403.4    253.8   0.018178698   0.15188   0.09084  -0.26130  -0.27450
  17   40151.8    249.1   0.009123595   0.07481  -0.04901   0.20511   0.17417
  18   38895.1    257.1   0.029841324   0.25258   0.48421  -0.11928   0.06242
  19   38656.9    258.7   0.089322642   0.76069   0.22185   0.39575   0.74488
  20   29520.2    338.8   0.045471873   0.50711  -0.39081  -0.28950   0.52016
  21   27548.3    363.0   0.055136126   0.65890   0.04357  -0.73248   0.34709
  22   34170.5    292.6   0.095116515   0.91639  -0.49145  -0.75879   0.31479
  23   33734.2    296.4   0.079512451   0.77596   0.36738   0.75452  -0.26777
  24   35861.9    278.8   0.003371399   0.03095   0.16393  -0.04983  -0.03994
  25   32161.6    310.9   0.039091917   0.40015  -0.36474  -0.41710   0.30520
  26   36853.6    271.3   0.109074012   0.97435   0.65958   0.53489   0.50318
  27   34040.0    293.8   0.007778518   0.07523   0.12166  -0.16651  -0.18084
  28   35835.2    279.1   0.036120857   0.33184   0.22319   0.52321   0.09095
  29   37027.4    270.1   0.055126305   0.49013   0.48690  -0.42662   0.26657
  30   41157.5    243.0   0.009799935   0.07839  -0.05359  -0.15567   0.22646
  31   40277.2    248.3   0.014541760   0.11886   0.26151  -0.22142   0.03803
  32   39780.7    251.4   0.010920709   0.09038  -0.02976  -0.13087   0.26901
  33   34332.5    291.3   0.040847527   0.39168  -0.57399   0.18731  -0.16473
  34   37369.1    267.6   0.006338869   0.05584   0.16593  -0.10966   0.12761
  35   32660.6    306.2   0.004377718   0.04413   0.18868   0.00288   0.09230
  36   39722.7    251.7   0.035160701   0.29140  -0.04175   0.50652   0.18193
  37   38560.4    259.3   0.013167373   0.11242  -0.20827   0.25404  -0.06712
  38   40931.2    244.3   0.112422494   0.90422   0.88362  -0.35046   0.02458
  39   36994.5    270.3   0.009744201   0.08671  -0.17853   0.21561  -0.09139
  40   39129.9    255.6   0.006019636   0.05065   0.08893   0.19547   0.06729

-----------------------------------------------------------------------------
         ABSORPTION SPECTRUM VIA TRANSITION VELOCITY DIPOLE MOMENTS
-----------------------------------------------------------------------------
State   Energy    Wavelength   fosc        P2         PX        PY        PZ  
        (cm-1)      (nm)                 (au**2)     (au)      (au)      (au) 
-----------------------------------------------------------------------------
   1   18606.4    537.4   0.249297202   0.03170   0.15898  -0.07694   0.02256
   2   19634.2    509.3   0.024613683   0.00330  -0.04140   0.03506   0.01896
   3   27778.9    360.0   0.029403593   0.00558   0.03782   0.05972   0.02421
   4   37414.4    267.3   0.178177294   0.04556   0.07904   0.16669  -0.10737
   5   24808.4    403.1   0.011275927   0.00191   0.00070  -0.03559   0.02539
   6   30749.2    325.2   0.455361567   0.09570  -0.15135  -0.17311   0.20694
   7   29915.6    334.3   0.148984166   0.03046   0.10223   0.09473   0.10505
   8   34314.8    291.4   0.086830214   0.02036   0.06676  -0.06210   0.10977
   9   29600.9    337.8   0.260667611   0.05273   0.22738   0.00182  -0.03213
  10   34110.0    293.2   0.223608538   0.05213   0.07866  -0.09498   0.19214
  11   36574.7    273.4   0.063211191   0.01580  -0.06111  -0.05774   0.09345
  12   37558.4    266.3   0.061739122   0.01585   0.00936   0.11845   0.04160
  13   35512.2    281.6   0.230083689   0.05584  -0.08754   0.21869  -0.01879
  14   37071.1    269.8   0.014415659   0.00365   0.01272  -0.05444   0.02295
  15   35927.1    278.3   0.155057608   0.03807   0.04799   0.11546   0.14980
  16   39403.4    253.8   0.022019589   0.00593  -0.01982   0.05081   0.05437
  17   40151.8    249.1   0.010477246   0.00288   0.00800  -0.04130  -0.03325
  18   38895.1    257.1   0.036625800   0.00974  -0.09499   0.02382  -0.01210
  19   38656.9    258.7   0.114152806   0.03016  -0.04449  -0.07588  -0.14974
  20   29520.2    338.8   0.099742962   0.02012   0.07887   0.05241  -0.10562
  21   27548.3    363.0   0.144159166   0.02714  -0.01055   0.14834  -0.07090
  22   34170.5    292.6   0.167430266   0.03910   0.10026   0.15737  -0.06545
  23   33734.2    296.4   0.150401911   0.03468  -0.07597  -0.15926   0.05950
  24   35861.9    278.8   0.006117071   0.00150  -0.03588   0.00799   0.01217
  25   32161.6    310.9   0.078810594   0.01732   0.07654   0.08802  -0.06096
  26   36853.6    271.3   0.183856646   0.04631  -0.14052  -0.11886  -0.11151
  27   34040.0    293.8   0.015460146   0.00360  -0.02878   0.03945   0.03482
  28   35835.2    279.1   0.063016120   0.01543  -0.05274  -0.11095  -0.01850
  29   37027.4    270.1   0.097336305   0.02463  -0.10791   0.09729  -0.05935
  30   41157.5    243.0   0.012141844   0.00342   0.00990   0.03022  -0.04903
  31   40277.2    248.3   0.020860438   0.00574  -0.05256   0.05293  -0.01337
  32   39780.7    251.4   0.019088381   0.00519   0.01162   0.03188  -0.06355
  33   34332.5    291.3   0.079973468   0.01877   0.12709  -0.03836   0.03377
  34   37369.1    267.6   0.011536409   0.00295  -0.03881   0.02821  -0.02538
  35   32660.6    306.2   0.009248718   0.00206  -0.04271  -0.00084  -0.01549
  36   39722.7    251.7   0.053313240   0.01447   0.01130  -0.11227  -0.04173
  37   38560.4    259.3   0.018505773   0.00488   0.04407  -0.05294   0.01152
  38   40931.2    244.3   0.150911372   0.04222  -0.19145   0.07458  -0.00169
  39   36994.5    270.3   0.014863477   0.00376   0.03715  -0.04497   0.01885
  40   39129.9    255.6   0.009206198   0.00246  -0.02109  -0.04365  -0.01057

-------------------------------------------------------------------
                             CD SPECTRUM
-------------------------------------------------------------------
State  Energy     Wavelength     R         MX        MY        MZ   
       (cm-1)       (nm)     (1e40*cgs)   (au)      (au)      (au)  
-------------------------------------------------------------------
   1   18606.4    537.4     10.29744  -0.05745  -0.08065  -0.01750
   2   19634.2    509.3     -6.13380  -0.07333   0.01151  -0.07678
   3   27778.9    360.0     28.24244  -0.63275   0.34019  -0.27525
   4   37414.4    267.3     11.91011   0.13804   0.58575   1.01875
   5   24808.4    403.1    -22.53963  -0.23328  -0.14970   0.12267
   6   30749.2    325.2    -68.85493  -0.03931  -0.08804   0.02663
   7   29915.6    334.3    -44.56673   0.55233   0.05152  -0.41670
   8   34314.8    291.4     80.45720  -0.11788   0.18523  -0.11238
   9   29600.9    337.8     24.75685  -0.05007   0.09326  -0.03549
  10   34110.0    293.2     48.80011  -0.12539   0.17141   0.02861
  11   36574.7    273.4     23.93887  -0.16108  -0.12309  -0.28222
  12   37558.4    266.3    -100.37644  -0.27870   0.50825  -0.37360
  13   35512.2    281.6    -20.41050   0.06433   0.04305  -0.22931
  14   37071.1    269.8     36.82843  -0.05685   0.32570   0.07769
  15   35927.1    278.3     65.32439  -0.15690   0.03970  -0.16868
  16   39403.4    253.8    -14.24903  -0.07150   0.27333  -0.17375
  17   40151.8    249.1     -4.59692   0.05080  -0.18627   0.17767
  18   38895.1    257.1      9.70936   0.04464   0.01029   0.00335
  19   38656.9    258.7      4.44426   0.13990  -0.28678   0.12335
  20   29520.2    338.8     73.98410  -0.00006   0.11977   0.36831
  21   27548.3    363.0      6.45585   0.05939   0.14328   0.33436
  22   34170.5    292.6    -27.40643   0.03270   0.15151   0.23158
  23   33734.2    296.4    -36.22445  -0.09556  -0.07966  -0.06863
  24   35861.9    278.8    -23.91086  -0.07132   0.61889   0.20505
  25   32161.6    310.9    -42.81744   0.12243   0.26907   0.21647
  26   36853.6    271.3    -26.36907   0.37000  -0.05501  -0.53769
  27   34040.0    293.8    -33.02563  -0.49799   0.13758  -0.07434
  28   35835.2    279.1     18.79067   0.10555   0.03312  -0.01131
  29   37027.4    270.1    115.16596   0.63082   0.20490   0.09209
  30   41157.5    243.0    -52.95099  -0.13553   0.41781  -0.24082
  31   40277.2    248.3     -9.31354  -0.30467  -0.32851  -0.33710
  32   39780.7    251.4    -41.28977  -0.49030  -0.18676  -0.47067
  33   34332.5    291.3    -74.55362   0.18742  -0.62402  -0.40263
  34   37369.1    267.6     53.48776   0.35007  -0.52482  -0.01714
  35   32660.6    306.2     26.14147   0.13972   0.23429   0.30781
  36   39722.7    251.7    -113.60692   0.52607  -0.43921   0.01901
  37   38560.4    259.3      6.00764  -0.33723  -0.24173  -0.05835
  38   40931.2    244.3     41.20137   0.15307   0.14684   0.14637
  39   36994.5    270.3     -1.75514  -0.13694  -0.16885  -0.09012
  40   39129.9    255.6      6.56083   0.16434  -0.03208   0.08280

Total run time:    55508.953 sec

           *** ORCA-CIS/TD-DFT FINISHED WITHOUT ERROR ***

Maximum memory used throughout the entire CIS-calculation: 6506.2 MB

-----------------------
CIS/TD-DFT TOTAL ENERGY
-----------------------

    E(SCF)  =  -4620.488792790 Eh
    DE(CIS) =      0.084777078 Eh (Root  1)
    ----------------------------- ---------
    E(tot)  =  -4620.404015712 Eh


-------------------------   --------------------
FINAL SINGLE POINT ENERGY     -4620.404015711962
-------------------------   --------------------


                            ***************************************
                            *     ORCA property calculations      *
                            ***************************************


  WARNING: The energy has been calculated at the MP2 level but the densities
           used in the property calculations are still SCF densities
           MP2 response densities have not been calculated 
           use %mp2 Density relaxed end
           or  %mp2 Density unrelaxed end

                                    ---------------------
                                    Active property flags
                                    ---------------------
   (+) Dipole Moment


------------------------------------------------------------------------------
                       ORCA ELECTRIC PROPERTIES CALCULATION
------------------------------------------------------------------------------

Dipole Moment Calculation                       ... on
Quadrupole Moment Calculation                   ... off
Polarizability Calculation                      ... off
GBWName                                         ... Cu50_XantPhos-dmbp_M06L_def2SVP_B2PLYP_def2TZVP_RIJCOSX_CPCM.gbw
Electron density                                ... Cu50_XantPhos-dmbp_M06L_def2SVP_B2PLYP_def2TZVP_RIJCOSX_CPCM.scfp
The origin for moment calculation is the CENTER OF MASS  = (-0.020916, -0.005062  0.023354)

-------------
DIPOLE MOMENT
-------------
                                X             Y             Z
Electronic contribution:    -11.24698      -1.19567       9.93667
Nuclear contribution   :      9.34962       2.26265     -10.43918
                        -----------------------------------------
Total Dipole Moment    :     -1.89736       1.06698      -0.50251
                        -----------------------------------------
Magnitude (a.u.)       :      2.23405
Magnitude (Debye)      :      5.67850



--------------------
Rotational spectrum 
--------------------
 
Rotational constants in cm-1:     0.001620     0.001388     0.001306 
Rotational constants in MHz :    48.556439    41.614861    39.141753 

 Dipole components along the rotational axes: 
x,y,z [a.u.] :    -1.920891     1.001452    -0.546112 
x,y,z [Debye]:    -4.882516     2.545488    -1.388106 

 

Timings for individual modules:

Sum of individual times         ...    57909.856 sec (= 965.164 min)
GTO integral calculation        ...        4.160 sec (=   0.069 min)   0.0 %
SCF iterations                  ...      965.817 sec (=  16.097 min)   1.7 %
MP2 module                      ...     1430.295 sec (=  23.838 min)   2.5 %
CIS module                      ...    55509.584 sec (= 925.160 min)  95.9 %
                             ****ORCA TERMINATED NORMALLY****
TOTAL RUN TIME: 0 days 16 hours 5 minutes 15 seconds 81 msec
