 Entering Gaussian System, Link 0=g16
 Input=/home/png4rjv/photocat/TMPC_bench/gaussian/M06L/Cu50_nosolv/Cu50_XantPhos-dmbp_M06L_def2SVP.gjf
 Output=/home/png4rjv/photocat/TMPC_bench/gaussian/M06L/Cu50_nosolv/Cu50_XantPhos-dmbp_M06L_def2SVP.log
 Initial command:
 /opt/software/packages/g16/l1.exe "/scratch/ligandum/png4rjv/3210539/Gau-2946569.inp" -scrdir="/scratch/ligandum/png4rjv/3210539/"
 Default is to use a total of  12 processors:
                               12 via shared-memory
                                1 via Linda
 Entering Link 1 = /opt/software/packages/g16/l1.exe PID=   2946571.
  
 Copyright (c) 1988-2021, Gaussian, Inc.  All Rights Reserved.
  
 This is part of the Gaussian(R) 16 program.  It is based on
 the Gaussian(R) 09 system (copyright 2009, Gaussian, Inc.),
 the Gaussian(R) 03 system (copyright 2003, Gaussian, Inc.),
 the Gaussian(R) 98 system (copyright 1998, Gaussian, Inc.),
 the Gaussian(R) 94 system (copyright 1995, Gaussian, Inc.),
 the Gaussian 92(TM) system (copyright 1992, Gaussian, Inc.),
 the Gaussian 90(TM) system (copyright 1990, Gaussian, Inc.),
 the Gaussian 88(TM) system (copyright 1988, Gaussian, Inc.),
 the Gaussian 86(TM) system (copyright 1986, Carnegie Mellon
 University), and the Gaussian 82(TM) system (copyright 1983,
 Carnegie Mellon University). Gaussian is a federally registered
 trademark of Gaussian, Inc.
  
 This software contains proprietary and confidential information,
 including trade secrets, belonging to Gaussian, Inc.
  
 This software is provided under written license and may be
 used, copied, transmitted, or stored only in accord with that
 written license.
  
 The following legend is applicable only to US Government
 contracts under FAR:
  
                    RESTRICTED RIGHTS LEGEND
  
 Use, reproduction and disclosure by the US Government is
 subject to restrictions as set forth in subparagraphs (a)
 and (c) of the Commercial Computer Software - Restricted
 Rights clause in FAR 52.227-19.
  
 Gaussian, Inc.
 340 Quinnipiac St., Bldg. 40, Wallingford CT 06492
  
  
 ---------------------------------------------------------------
 Warning -- This program may not be used in any manner that
 competes with the business of Gaussian, Inc. or will provide
 assistance to any competitor of Gaussian, Inc.  The licensee
 of this program is prohibited from giving any competitor of
 Gaussian, Inc. access to this program.  By using this program,
 the user acknowledges that Gaussian, Inc. is engaged in the
 business of creating and licensing software in the field of
 computational chemistry and represents and warrants to the
 licensee that it is not a competitor of Gaussian, Inc. and that
 it will not use this program in any manner prohibited above.
 ---------------------------------------------------------------
  

 Cite this work as:
 Gaussian 16, Revision C.02,
 M. J. Frisch, G. W. Trucks, H. B. Schlegel, G. E. Scuseria, 
 M. A. Robb, J. R. Cheeseman, G. Scalmani, V. Barone, 
 G. A. Petersson, H. Nakatsuji, X. Li, M. Caricato, A. V. Marenich, 
 J. Bloino, B. G. Janesko, R. Gomperts, B. Mennucci, H. P. Hratchian, 
 J. V. Ortiz, A. F. Izmaylov, J. L. Sonnenberg, D. Williams-Young, 
 F. Ding, F. Lipparini, F. Egidi, J. Goings, B. Peng, A. Petrone, 
 T. Henderson, D. Ranasinghe, V. G. Zakrzewski, J. Gao, N. Rega, 
 G. Zheng, W. Liang, M. Hada, M. Ehara, K. Toyota, R. Fukuda, 
 J. Hasegawa, M. Ishida, T. Nakajima, Y. Honda, O. Kitao, H. Nakai, 
 T. Vreven, K. Throssell, J. A. Montgomery, Jr., J. E. Peralta, 
 F. Ogliaro, M. J. Bearpark, J. J. Heyd, E. N. Brothers, K. N. Kudin, 
 V. N. Staroverov, T. A. Keith, R. Kobayashi, J. Normand, 
 K. Raghavachari, A. P. Rendell, J. C. Burant, S. S. Iyengar, 
 J. Tomasi, M. Cossi, J. M. Millam, M. Klene, C. Adamo, R. Cammi, 
 J. W. Ochterski, R. L. Martin, K. Morokuma, O. Farkas, 
 J. B. Foresman, and D. J. Fox, Gaussian, Inc., Wallingford CT, 2019.
 
 ******************************************
 Gaussian 16:  AS64L-G16RevC.02  7-Dec-2021
                22-Nov-2023 
 ******************************************
 %chk=cp.chk
 %NProcshared=16
 Will use up to   16 processors via shared memory.
 Default route: MaxDisk=500GB
 -----------------------------------------------
 #p m06l/def2svp opt Symmetry=None int=ultrafine
 -----------------------------------------------
 1/18=20,19=15,26=4,38=1/1,3;
 2/9=110,12=2,15=3,17=6,18=5,40=1/2;
 3/5=43,7=101,11=2,25=1,30=1,71=1,74=-53,75=-5/1,2,3;
 4//1;
 5/5=2,38=5/2;
 6/7=2,8=2,9=2,10=2,28=1/1;
 7/30=1/1,2,3,16;
 1/18=20,19=15,26=4/3(2);
 2/9=110,15=3/2;
 99//99;
 2/9=110,15=3/2;
 3/5=43,7=101,11=2,25=1,30=1,71=1,74=-53,75=-5/1,2,3;
 4/5=5,16=3,69=1/1;
 5/5=2,38=5/2;
 7/30=1/1,2,3,16;
 1/18=20,19=15,26=4/3(-5);
 2/9=110,15=3/2;
 6/7=2,8=2,9=2,10=2,19=2,28=1/1;
 99/9=1/99;
 Leave Link    1 at Wed Nov 22 13:30:46 2023, MaxMem=           0 cpu:               0.1 elap:               0.1
 (Enter /opt/software/packages/g16/l101.exe)
 -----
 Title
 -----
 Symbolic Z-matrix:
 Charge =  1 Multiplicity = 1
 P                     1.15653   0.85818   1.66642 
 P                     0.00803  -1.81067  -0.84648 
 O                     2.28029  -0.07925  -0.85944 
 C                     2.18357  -0.36537   2.55863 
 C                     1.62348  -0.98501   3.68834 
 H                     0.61975  -0.7028    4.02439 
 C                     2.33938  -1.94843   4.39349 
 H                     1.89668  -2.41281   5.27823 
 C                     3.61497  -2.32478   3.96733 
 H                     4.17445  -3.0862    4.51631 
 C                     4.16912  -1.72875   2.83575 
 H                     5.16523  -2.02091   2.49395 
 C                     3.46173  -0.74978   2.13588 
 H                     3.91913  -0.28084   1.26044 
 C                     2.32365   1.78461   0.59344 
 C                     2.73538   3.10251   0.83351 
 H                     2.44762   3.603     1.7611 
 C                     3.48814   3.7909   -0.11632 
 H                     3.79611   4.8197    0.08218 
 C                     3.8494    3.18024  -1.3181 
 H                     4.43852   3.73976  -2.04772 
 C                     3.47333   1.86247  -1.5914 
 C                     3.86948   1.07637  -2.83759 
 C                     2.68013   0.19692  -3.20752 
 C                     2.28464  -0.1295   -4.50846 
 H                     2.81278   0.3028   -5.36098 
 C                     1.22869  -1.01462  -4.73435 
 H                     0.94221  -1.26372  -5.75837 
 C                     0.53874  -1.58806  -3.66659 
 H                    -0.28861  -2.27687  -3.85692 
 C                     0.89225  -1.26987  -2.35013 
 C                    -1.39736  -2.79041  -1.48091 
 C                    -2.51895  -2.07657  -1.93432 
 H                    -2.49854  -0.98097  -1.92899 
 C                    -3.64904  -2.74879  -2.39232 
 H                    -4.51396  -2.18055  -2.74387 
 C                    -3.67779  -4.1451   -2.39104 
 H                    -4.56692  -4.67487  -2.74117 
 C                    -2.56985  -4.86178  -1.9396 
 H                    -2.58794  -5.95433  -1.93915 
 C                    -1.4325   -4.19075  -1.4878 
 H                    -0.5698   -4.76458  -1.13778 
 C                     1.12776  -3.0403   -0.0891 
 C                     0.81553  -3.49825   1.20005 
 H                    -0.07009  -3.10962   1.7148 
 C                     1.62007  -4.44647   1.82749 
 H                     1.3632   -4.79848   2.82971 
 C                     2.75932  -4.93272   1.18377 
 H                     3.39642  -5.66906   1.67985 
 C                     3.08636  -4.4698   -0.09035 
 H                     3.97869  -4.84488  -0.59749 
 C                     2.27371  -3.53174  -0.72783 
 H                     2.53554  -3.18596  -1.73206 
 C                     1.96145  -0.38413  -2.16081 
 C                     2.71328   1.20147  -0.62133 
 C                     4.28953   1.98573  -3.98246 
 H                     3.48369   2.6691   -4.28787 
 H                     4.58795   1.39763  -4.86033 
 H                     5.16257   2.591    -3.70476 
 C                     5.04614   0.15256  -2.46737 
 H                     5.34467  -0.45684  -3.33297 
 H                     4.78866  -0.5343   -1.64737 
 H                     5.91704   0.74456  -2.14976 
 C                     0.72626   2.07768   2.96022 
 C                     1.57535   2.37666   4.03607 
 H                     2.53521   1.8611    4.13648 
 C                     1.20406   3.33442   4.97769 
 H                     1.87104   3.56066   5.81308 
 C                    -0.01391   4.006     4.85312 
 H                    -0.30233   4.75562   5.59393 
 C                    -0.86324   3.71581   3.78568 
 H                    -1.81933   4.23525   3.68736 
 C                    -0.49725   2.75221   2.84603 
 H                    -1.16761   2.51318   2.01321 
 Cu                   -0.56305   0.03999   0.42417 
 C                    -3.45491   0.63112   0.31227 
 C                    -4.83183   0.45955   0.40087 
 C                    -5.35034  -0.56889   1.20017 
 C                    -4.45078  -1.38977   1.89648 
 C                    -3.09328  -1.1398    1.74862 
 C                    -2.83812   1.67339  -0.54046 
 C                    -3.57771   2.68893  -1.1362 
 C                    -2.92761   3.63744  -1.93862 
 C                    -1.53998   3.52661  -2.11154 
 C                    -0.88593   2.48075  -1.47439 
 H                    -5.52567   1.09332  -0.15159 
 H                    -4.78504  -2.2054    2.53685 
 H                    -2.36494  -1.76337   2.27741 
 H                    -4.65433   2.77776  -0.98964 
 H                    -0.97241   4.22924  -2.72077 
 H                     0.19843   2.36779  -1.58747 
 N                    -2.59106  -0.16773   0.98211 
 N                    -1.4989    1.57389  -0.70888 
 O                    -3.68871   4.58863  -2.48271 
 O                    -6.67831  -0.69371   1.23323 
 C                    -3.06539   5.5652   -3.30164 
 H                    -3.85958   6.23622  -3.64254 
 H                    -2.3213    6.1463   -2.73709 
 H                    -2.58278   5.10596  -4.17707 
 C                    -7.23965  -1.74013   2.00937 
 H                    -8.32477  -1.66707   1.88867 
 H                    -6.90394  -2.7261    1.65509 
 H                    -6.98891  -1.6301    3.07483 
 
 ITRead=  0  0  0  0  0  0  0  0  0  0  0  0  0  0  0  0  0  0  0  0
 ITRead=  0  0  0  0  0  0  0  0  0  0  0  0  0  0  0  0  0  0  0  0
 ITRead=  0  0  0  0  0  0  0  0  0  0  0  0  0  0  0  0  0  0  0  0
 ITRead=  0  0  0  0  0  0  0  0  0  0  0  0  0  0  0  0  0  0  0  0
 ITRead=  0  0  0  0  0  0  0  0  0  0  0  0  0  0  0  0  0  0  0  0
 ITRead=  0  0  0
 MicOpt= -1 -1 -1 -1 -1 -1 -1 -1 -1 -1 -1 -1 -1 -1 -1 -1 -1 -1 -1 -1
 MicOpt= -1 -1 -1 -1 -1 -1 -1 -1 -1 -1 -1 -1 -1 -1 -1 -1 -1 -1 -1 -1
 MicOpt= -1 -1 -1 -1 -1 -1 -1 -1 -1 -1 -1 -1 -1 -1 -1 -1 -1 -1 -1 -1
 MicOpt= -1 -1 -1 -1 -1 -1 -1 -1 -1 -1 -1 -1 -1 -1 -1 -1 -1 -1 -1 -1
 MicOpt= -1 -1 -1 -1 -1 -1 -1 -1 -1 -1 -1 -1 -1 -1 -1 -1 -1 -1 -1 -1
 MicOpt= -1 -1 -1
 NAtoms=    103 NQM=      103 NQMF=       0 NMMI=      0 NMMIF=      0
                NMic=       0 NMicF=      0.
                    Isotopes and Nuclear Properties:
 (Nuclear quadrupole moments (NQMom) in fm**2, nuclear magnetic moments (NMagM)
  in nuclear magnetons)

  Atom         1           2           3           4           5           6           7           8           9          10
 IAtWgt=          31          31          16          12          12           1          12           1          12           1
 AtmWgt=  30.9737634  30.9737634  15.9949146  12.0000000  12.0000000   1.0078250  12.0000000   1.0078250  12.0000000   1.0078250
 NucSpn=           1           1           0           0           0           1           0           1           0           1
 AtZEff=  -0.0000000  -0.0000000  -0.0000000  -0.0000000  -0.0000000  -0.0000000  -0.0000000  -0.0000000  -0.0000000  -0.0000000
 NQMom=    0.0000000   0.0000000   0.0000000   0.0000000   0.0000000   0.0000000   0.0000000   0.0000000   0.0000000   0.0000000
 NMagM=    1.1316000   1.1316000   0.0000000   0.0000000   0.0000000   2.7928460   0.0000000   2.7928460   0.0000000   2.7928460
 AtZNuc=  15.0000000  15.0000000   8.0000000   6.0000000   6.0000000   1.0000000   6.0000000   1.0000000   6.0000000   1.0000000

  Atom        11          12          13          14          15          16          17          18          19          20
 IAtWgt=          12           1          12           1          12          12           1          12           1          12
 AtmWgt=  12.0000000   1.0078250  12.0000000   1.0078250  12.0000000  12.0000000   1.0078250  12.0000000   1.0078250  12.0000000
 NucSpn=           0           1           0           1           0           0           1           0           1           0
 AtZEff=  -0.0000000  -0.0000000  -0.0000000  -0.0000000  -0.0000000  -0.0000000  -0.0000000  -0.0000000  -0.0000000  -0.0000000
 NQMom=    0.0000000   0.0000000   0.0000000   0.0000000   0.0000000   0.0000000   0.0000000   0.0000000   0.0000000   0.0000000
 NMagM=    0.0000000   2.7928460   0.0000000   2.7928460   0.0000000   0.0000000   2.7928460   0.0000000   2.7928460   0.0000000
 AtZNuc=   6.0000000   1.0000000   6.0000000   1.0000000   6.0000000   6.0000000   1.0000000   6.0000000   1.0000000   6.0000000

  Atom        21          22          23          24          25          26          27          28          29          30
 IAtWgt=           1          12          12          12          12           1          12           1          12           1
 AtmWgt=   1.0078250  12.0000000  12.0000000  12.0000000  12.0000000   1.0078250  12.0000000   1.0078250  12.0000000   1.0078250
 NucSpn=           1           0           0           0           0           1           0           1           0           1
 AtZEff=  -0.0000000  -0.0000000  -0.0000000  -0.0000000  -0.0000000  -0.0000000  -0.0000000  -0.0000000  -0.0000000  -0.0000000
 NQMom=    0.0000000   0.0000000   0.0000000   0.0000000   0.0000000   0.0000000   0.0000000   0.0000000   0.0000000   0.0000000
 NMagM=    2.7928460   0.0000000   0.0000000   0.0000000   0.0000000   2.7928460   0.0000000   2.7928460   0.0000000   2.7928460
 AtZNuc=   1.0000000   6.0000000   6.0000000   6.0000000   6.0000000   1.0000000   6.0000000   1.0000000   6.0000000   1.0000000

  Atom        31          32          33          34          35          36          37          38          39          40
 IAtWgt=          12          12          12           1          12           1          12           1          12           1
 AtmWgt=  12.0000000  12.0000000  12.0000000   1.0078250  12.0000000   1.0078250  12.0000000   1.0078250  12.0000000   1.0078250
 NucSpn=           0           0           0           1           0           1           0           1           0           1
 AtZEff=  -0.0000000  -0.0000000  -0.0000000  -0.0000000  -0.0000000  -0.0000000  -0.0000000  -0.0000000  -0.0000000  -0.0000000
 NQMom=    0.0000000   0.0000000   0.0000000   0.0000000   0.0000000   0.0000000   0.0000000   0.0000000   0.0000000   0.0000000
 NMagM=    0.0000000   0.0000000   0.0000000   2.7928460   0.0000000   2.7928460   0.0000000   2.7928460   0.0000000   2.7928460
 AtZNuc=   6.0000000   6.0000000   6.0000000   1.0000000   6.0000000   1.0000000   6.0000000   1.0000000   6.0000000   1.0000000

  Atom        41          42          43          44          45          46          47          48          49          50
 IAtWgt=          12           1          12          12           1          12           1          12           1          12
 AtmWgt=  12.0000000   1.0078250  12.0000000  12.0000000   1.0078250  12.0000000   1.0078250  12.0000000   1.0078250  12.0000000
 NucSpn=           0           1           0           0           1           0           1           0           1           0
 AtZEff=  -0.0000000  -0.0000000  -0.0000000  -0.0000000  -0.0000000  -0.0000000  -0.0000000  -0.0000000  -0.0000000  -0.0000000
 NQMom=    0.0000000   0.0000000   0.0000000   0.0000000   0.0000000   0.0000000   0.0000000   0.0000000   0.0000000   0.0000000
 NMagM=    0.0000000   2.7928460   0.0000000   0.0000000   2.7928460   0.0000000   2.7928460   0.0000000   2.7928460   0.0000000
 AtZNuc=   6.0000000   1.0000000   6.0000000   6.0000000   1.0000000   6.0000000   1.0000000   6.0000000   1.0000000   6.0000000

  Atom        51          52          53          54          55          56          57          58          59          60
 IAtWgt=           1          12           1          12          12          12           1           1           1          12
 AtmWgt=   1.0078250  12.0000000   1.0078250  12.0000000  12.0000000  12.0000000   1.0078250   1.0078250   1.0078250  12.0000000
 NucSpn=           1           0           1           0           0           0           1           1           1           0
 AtZEff=  -0.0000000  -0.0000000  -0.0000000  -0.0000000  -0.0000000  -0.0000000  -0.0000000  -0.0000000  -0.0000000  -0.0000000
 NQMom=    0.0000000   0.0000000   0.0000000   0.0000000   0.0000000   0.0000000   0.0000000   0.0000000   0.0000000   0.0000000
 NMagM=    2.7928460   0.0000000   2.7928460   0.0000000   0.0000000   0.0000000   2.7928460   2.7928460   2.7928460   0.0000000
 AtZNuc=   1.0000000   6.0000000   1.0000000   6.0000000   6.0000000   6.0000000   1.0000000   1.0000000   1.0000000   6.0000000

  Atom        61          62          63          64          65          66          67          68          69          70
 IAtWgt=           1           1           1          12          12           1          12           1          12           1
 AtmWgt=   1.0078250   1.0078250   1.0078250  12.0000000  12.0000000   1.0078250  12.0000000   1.0078250  12.0000000   1.0078250
 NucSpn=           1           1           1           0           0           1           0           1           0           1
 AtZEff=  -0.0000000  -0.0000000  -0.0000000  -0.0000000  -0.0000000  -0.0000000  -0.0000000  -0.0000000  -0.0000000  -0.0000000
 NQMom=    0.0000000   0.0000000   0.0000000   0.0000000   0.0000000   0.0000000   0.0000000   0.0000000   0.0000000   0.0000000
 NMagM=    2.7928460   2.7928460   2.7928460   0.0000000   0.0000000   2.7928460   0.0000000   2.7928460   0.0000000   2.7928460
 AtZNuc=   1.0000000   1.0000000   1.0000000   6.0000000   6.0000000   1.0000000   6.0000000   1.0000000   6.0000000   1.0000000

  Atom        71          72          73          74          75          76          77          78          79          80
 IAtWgt=          12           1          12           1          63          12          12          12          12          12
 AtmWgt=  12.0000000   1.0078250  12.0000000   1.0078250  62.9295992  12.0000000  12.0000000  12.0000000  12.0000000  12.0000000
 NucSpn=           0           1           0           1           3           0           0           0           0           0
 AtZEff=  -0.0000000  -0.0000000  -0.0000000  -0.0000000  -0.0000000  -0.0000000  -0.0000000  -0.0000000  -0.0000000  -0.0000000
 NQMom=    0.0000000   0.0000000   0.0000000   0.0000000 -22.0000000   0.0000000   0.0000000   0.0000000   0.0000000   0.0000000
 NMagM=    0.0000000   2.7928460   0.0000000   2.7928460   2.2233000   0.0000000   0.0000000   0.0000000   0.0000000   0.0000000
 AtZNuc=   6.0000000   1.0000000   6.0000000   1.0000000  29.0000000   6.0000000   6.0000000   6.0000000   6.0000000   6.0000000

  Atom        81          82          83          84          85          86          87          88          89          90
 IAtWgt=          12          12          12          12          12           1           1           1           1           1
 AtmWgt=  12.0000000  12.0000000  12.0000000  12.0000000  12.0000000   1.0078250   1.0078250   1.0078250   1.0078250   1.0078250
 NucSpn=           0           0           0           0           0           1           1           1           1           1
 AtZEff=  -0.0000000  -0.0000000  -0.0000000  -0.0000000  -0.0000000  -0.0000000  -0.0000000  -0.0000000  -0.0000000  -0.0000000
 NQMom=    0.0000000   0.0000000   0.0000000   0.0000000   0.0000000   0.0000000   0.0000000   0.0000000   0.0000000   0.0000000
 NMagM=    0.0000000   0.0000000   0.0000000   0.0000000   0.0000000   2.7928460   2.7928460   2.7928460   2.7928460   2.7928460
 AtZNuc=   6.0000000   6.0000000   6.0000000   6.0000000   6.0000000   1.0000000   1.0000000   1.0000000   1.0000000   1.0000000

  Atom        91          92          93          94          95          96          97          98          99         100
 IAtWgt=           1          14          14          16          16          12           1           1           1          12
 AtmWgt=   1.0078250  14.0030740  14.0030740  15.9949146  15.9949146  12.0000000   1.0078250   1.0078250   1.0078250  12.0000000
 NucSpn=           1           2           2           0           0           0           1           1           1           0
 AtZEff=  -0.0000000  -0.0000000  -0.0000000  -0.0000000  -0.0000000  -0.0000000  -0.0000000  -0.0000000  -0.0000000  -0.0000000
 NQMom=    0.0000000   2.0440000   2.0440000   0.0000000   0.0000000   0.0000000   0.0000000   0.0000000   0.0000000   0.0000000
 NMagM=    2.7928460   0.4037610   0.4037610   0.0000000   0.0000000   0.0000000   2.7928460   2.7928460   2.7928460   0.0000000
 AtZNuc=   1.0000000   7.0000000   7.0000000   8.0000000   8.0000000   6.0000000   1.0000000   1.0000000   1.0000000   6.0000000

  Atom       101         102         103
 IAtWgt=           1           1           1
 AtmWgt=   1.0078250   1.0078250   1.0078250
 NucSpn=           1           1           1
 AtZEff=  -0.0000000  -0.0000000  -0.0000000
 NQMom=    0.0000000   0.0000000   0.0000000
 NMagM=    2.7928460   2.7928460   2.7928460
 AtZNuc=   1.0000000   1.0000000   1.0000000
 Leave Link  101 at Wed Nov 22 13:30:46 2023, MaxMem=  2831155200 cpu:               0.1 elap:               0.1
 (Enter /opt/software/packages/g16/l103.exe)

 GradGradGradGradGradGradGradGradGradGradGradGradGradGradGradGradGradGrad
 Berny optimization.
 Initialization pass.
                           ----------------------------
                           !    Initial Parameters    !
                           ! (Angstroms and Degrees)  !
 --------------------------                            --------------------------
 ! Name  Definition              Value          Derivative Info.                !
 --------------------------------------------------------------------------------
 ! R1    R(1,4)                  1.8297         estimate D2E/DX2                !
 ! R2    R(1,15)                 1.8362         estimate D2E/DX2                !
 ! R3    R(1,64)                 1.8293         estimate D2E/DX2                !
 ! R4    R(1,75)                 2.2737         estimate D2E/DX2                !
 ! R5    R(2,31)                 1.8263         estimate D2E/DX2                !
 ! R6    R(2,32)                 1.8269         estimate D2E/DX2                !
 ! R7    R(2,43)                 1.8274         estimate D2E/DX2                !
 ! R8    R(2,75)                 2.3164         estimate D2E/DX2                !
 ! R9    R(3,54)                 1.3741         estimate D2E/DX2                !
 ! R10   R(3,55)                 1.3727         estimate D2E/DX2                !
 ! R11   R(4,5)                  1.405          estimate D2E/DX2                !
 ! R12   R(4,13)                 1.4001         estimate D2E/DX2                !
 ! R13   R(5,6)                  1.0955         estimate D2E/DX2                !
 ! R14   R(5,7)                  1.3921         estimate D2E/DX2                !
 ! R15   R(7,8)                  1.0929         estimate D2E/DX2                !
 ! R16   R(7,9)                  1.3966         estimate D2E/DX2                !
 ! R17   R(9,10)                 1.0928         estimate D2E/DX2                !
 ! R18   R(9,11)                 1.3938         estimate D2E/DX2                !
 ! R19   R(11,12)                1.0929         estimate D2E/DX2                !
 ! R20   R(11,13)                1.3959         estimate D2E/DX2                !
 ! R21   R(13,14)                1.0934         estimate D2E/DX2                !
 ! R22   R(15,16)                1.4014         estimate D2E/DX2                !
 ! R23   R(15,55)                1.4027         estimate D2E/DX2                !
 ! R24   R(16,17)                1.0926         estimate D2E/DX2                !
 ! R25   R(16,18)                1.3938         estimate D2E/DX2                !
 ! R26   R(18,19)                1.0921         estimate D2E/DX2                !
 ! R27   R(18,20)                1.3956         estimate D2E/DX2                !
 ! R28   R(20,21)                1.092          estimate D2E/DX2                !
 ! R29   R(20,22)                1.3974         estimate D2E/DX2                !
 ! R30   R(22,23)                1.5257         estimate D2E/DX2                !
 ! R31   R(22,55)                1.3984         estimate D2E/DX2                !
 ! R32   R(23,24)                1.5247         estimate D2E/DX2                !
 ! R33   R(23,56)                1.5212         estimate D2E/DX2                !
 ! R34   R(23,60)                1.5411         estimate D2E/DX2                !
 ! R35   R(24,25)                1.3984         estimate D2E/DX2                !
 ! R36   R(24,54)                1.3963         estimate D2E/DX2                !
 ! R37   R(25,26)                1.0921         estimate D2E/DX2                !
 ! R38   R(25,27)                1.3962         estimate D2E/DX2                !
 ! R39   R(27,28)                1.0921         estimate D2E/DX2                !
 ! R40   R(27,29)                1.3946         estimate D2E/DX2                !
 ! R41   R(29,30)                1.0933         estimate D2E/DX2                !
 ! R42   R(29,31)                1.3997         estimate D2E/DX2                !
 ! R43   R(31,54)                1.4013         estimate D2E/DX2                !
 ! R44   R(32,33)                1.4047         estimate D2E/DX2                !
 ! R45   R(32,41)                1.4008         estimate D2E/DX2                !
 ! R46   R(33,34)                1.0958         estimate D2E/DX2                !
 ! R47   R(33,35)                1.3924         estimate D2E/DX2                !
 ! R48   R(35,36)                1.093          estimate D2E/DX2                !
 ! R49   R(35,37)                1.3966         estimate D2E/DX2                !
 ! R50   R(37,38)                1.0926         estimate D2E/DX2                !
 ! R51   R(37,39)                1.3946         estimate D2E/DX2                !
 ! R52   R(39,40)                1.0927         estimate D2E/DX2                !
 ! R53   R(39,41)                1.3957         estimate D2E/DX2                !
 ! R54   R(41,42)                1.0936         estimate D2E/DX2                !
 ! R55   R(43,44)                1.4032         estimate D2E/DX2                !
 ! R56   R(43,52)                1.401          estimate D2E/DX2                !
 ! R57   R(44,45)                1.0956         estimate D2E/DX2                !
 ! R58   R(44,46)                1.3929         estimate D2E/DX2                !
 ! R59   R(46,47)                1.0929         estimate D2E/DX2                !
 ! R60   R(46,48)                1.396          estimate D2E/DX2                !
 ! R61   R(48,49)                1.0928         estimate D2E/DX2                !
 ! R62   R(48,50)                1.3945         estimate D2E/DX2                !
 ! R63   R(50,51)                1.0928         estimate D2E/DX2                !
 ! R64   R(50,52)                1.3952         estimate D2E/DX2                !
 ! R65   R(52,53)                1.0939         estimate D2E/DX2                !
 ! R66   R(56,57)                1.0998         estimate D2E/DX2                !
 ! R67   R(56,58)                1.098          estimate D2E/DX2                !
 ! R68   R(56,59)                1.098          estimate D2E/DX2                !
 ! R69   R(60,61)                1.0999         estimate D2E/DX2                !
 ! R70   R(60,62)                1.1002         estimate D2E/DX2                !
 ! R71   R(60,63)                1.0999         estimate D2E/DX2                !
 ! R72   R(64,65)                1.4028         estimate D2E/DX2                !
 ! R73   R(64,73)                1.4018         estimate D2E/DX2                !
 ! R74   R(65,66)                1.0942         estimate D2E/DX2                !
 ! R75   R(65,67)                1.3935         estimate D2E/DX2                !
 ! R76   R(67,68)                1.0927         estimate D2E/DX2                !
 ! R77   R(67,69)                1.3964         estimate D2E/DX2                !
 ! R78   R(69,70)                1.0927         estimate D2E/DX2                !
 ! R79   R(69,71)                1.3946         estimate D2E/DX2                !
 ! R80   R(71,72)                1.0925         estimate D2E/DX2                !
 ! R81   R(71,73)                1.3948         estimate D2E/DX2                !
 ! R82   R(73,74)                1.0955         estimate D2E/DX2                !
 ! R83   R(75,92)                2.1136         estimate D2E/DX2                !
 ! R84   R(75,93)                2.1243         estimate D2E/DX2                !
 ! R85   R(76,77)                1.3904         estimate D2E/DX2                !
 ! R86   R(76,81)                1.4812         estimate D2E/DX2                !
 ! R87   R(76,92)                1.3539         estimate D2E/DX2                !
 ! R88   R(77,78)                1.4019         estimate D2E/DX2                !
 ! R89   R(77,86)                1.0901         estimate D2E/DX2                !
 ! R90   R(78,79)                1.4028         estimate D2E/DX2                !
 ! R91   R(78,95)                1.3342         estimate D2E/DX2                !
 ! R92   R(79,80)                1.3882         estimate D2E/DX2                !
 ! R93   R(79,87)                1.0895         estimate D2E/DX2                !
 ! R94   R(80,88)                1.095          estimate D2E/DX2                !
 ! R95   R(80,92)                1.3359         estimate D2E/DX2                !
 ! R96   R(81,82)                1.3904         estimate D2E/DX2                !
 ! R97   R(81,93)                1.3534         estimate D2E/DX2                !
 ! R98   R(82,83)                1.4022         estimate D2E/DX2                !
 ! R99   R(82,89)                1.0902         estimate D2E/DX2                !
 ! R100  R(83,84)                1.4027         estimate D2E/DX2                !
 ! R101  R(83,94)                1.3342         estimate D2E/DX2                !
 ! R102  R(84,85)                1.3884         estimate D2E/DX2                !
 ! R103  R(84,90)                1.0895         estimate D2E/DX2                !
 ! R104  R(85,91)                1.0961         estimate D2E/DX2                !
 ! R105  R(85,93)                1.3357         estimate D2E/DX2                !
 ! R106  R(94,96)                1.4188         estimate D2E/DX2                !
 ! R107  R(95,100)               1.4186         estimate D2E/DX2                !
 ! R108  R(96,97)                1.0942         estimate D2E/DX2                !
 ! R109  R(96,98)                1.1            estimate D2E/DX2                !
 ! R110  R(96,99)                1.1001         estimate D2E/DX2                !
 ! R111  R(100,101)              1.0943         estimate D2E/DX2                !
 ! R112  R(100,102)              1.1002         estimate D2E/DX2                !
 ! R113  R(100,103)              1.1001         estimate D2E/DX2                !
 ! A1    A(4,1,15)             105.3994         estimate D2E/DX2                !
 ! A2    A(4,1,64)             103.4706         estimate D2E/DX2                !
 ! A3    A(4,1,75)             116.7628         estimate D2E/DX2                !
 ! A4    A(15,1,64)            103.0879         estimate D2E/DX2                !
 ! A5    A(15,1,75)            110.0599         estimate D2E/DX2                !
 ! A6    A(64,1,75)            116.6434         estimate D2E/DX2                !
 ! A7    A(31,2,32)            104.2018         estimate D2E/DX2                !
 ! A8    A(31,2,43)            104.1121         estimate D2E/DX2                !
 ! A9    A(31,2,75)            109.5376         estimate D2E/DX2                !
 ! A10   A(32,2,43)            104.7405         estimate D2E/DX2                !
 ! A11   A(32,2,75)            115.4237         estimate D2E/DX2                !
 ! A12   A(43,2,75)            117.4719         estimate D2E/DX2                !
 ! A13   A(54,3,55)            116.3884         estimate D2E/DX2                !
 ! A14   A(1,4,5)              117.5968         estimate D2E/DX2                !
 ! A15   A(1,4,13)             123.2851         estimate D2E/DX2                !
 ! A16   A(5,4,13)             119.0542         estimate D2E/DX2                !
 ! A17   A(4,5,6)              119.8885         estimate D2E/DX2                !
 ! A18   A(4,5,7)              120.4988         estimate D2E/DX2                !
 ! A19   A(6,5,7)              119.6102         estimate D2E/DX2                !
 ! A20   A(5,7,8)              119.7239         estimate D2E/DX2                !
 ! A21   A(5,7,9)              120.1088         estimate D2E/DX2                !
 ! A22   A(8,7,9)              120.1664         estimate D2E/DX2                !
 ! A23   A(7,9,10)             120.1393         estimate D2E/DX2                !
 ! A24   A(7,9,11)             119.7116         estimate D2E/DX2                !
 ! A25   A(10,9,11)            120.1486         estimate D2E/DX2                !
 ! A26   A(9,11,12)            120.1291         estimate D2E/DX2                !
 ! A27   A(9,11,13)            120.3606         estimate D2E/DX2                !
 ! A28   A(12,11,13)           119.509          estimate D2E/DX2                !
 ! A29   A(4,13,11)            120.2522         estimate D2E/DX2                !
 ! A30   A(4,13,14)            120.3915         estimate D2E/DX2                !
 ! A31   A(11,13,14)           119.3542         estimate D2E/DX2                !
 ! A32   A(1,15,16)            124.1312         estimate D2E/DX2                !
 ! A33   A(1,15,55)            118.2203         estimate D2E/DX2                !
 ! A34   A(16,15,55)           117.2389         estimate D2E/DX2                !
 ! A35   A(15,16,17)           119.9235         estimate D2E/DX2                !
 ! A36   A(15,16,18)           120.4233         estimate D2E/DX2                !
 ! A37   A(17,16,18)           119.6403         estimate D2E/DX2                !
 ! A38   A(16,18,19)           119.5844         estimate D2E/DX2                !
 ! A39   A(16,18,20)           120.6982         estimate D2E/DX2                !
 ! A40   A(19,18,20)           119.7172         estimate D2E/DX2                !
 ! A41   A(18,20,21)           119.3941         estimate D2E/DX2                !
 ! A42   A(18,20,22)           120.7564         estimate D2E/DX2                !
 ! A43   A(21,20,22)           119.8482         estimate D2E/DX2                !
 ! A44   A(20,22,23)           125.1519         estimate D2E/DX2                !
 ! A45   A(20,22,55)           117.1514         estimate D2E/DX2                !
 ! A46   A(23,22,55)           117.6565         estimate D2E/DX2                !
 ! A47   A(22,23,24)           107.0261         estimate D2E/DX2                !
 ! A48   A(22,23,56)           112.2349         estimate D2E/DX2                !
 ! A49   A(22,23,60)           108.1124         estimate D2E/DX2                !
 ! A50   A(24,23,56)           112.1843         estimate D2E/DX2                !
 ! A51   A(24,23,60)           107.945          estimate D2E/DX2                !
 ! A52   A(56,23,60)           109.1661         estimate D2E/DX2                !
 ! A53   A(23,24,25)           125.5188         estimate D2E/DX2                !
 ! A54   A(23,24,54)           117.3628         estimate D2E/DX2                !
 ! A55   A(25,24,54)           117.045          estimate D2E/DX2                !
 ! A56   A(24,25,26)           119.8066         estimate D2E/DX2                !
 ! A57   A(24,25,27)           120.823          estimate D2E/DX2                !
 ! A58   A(26,25,27)           119.3671         estimate D2E/DX2                !
 ! A59   A(25,27,28)           119.648          estimate D2E/DX2                !
 ! A60   A(25,27,29)           120.7263         estimate D2E/DX2                !
 ! A61   A(28,27,29)           119.6253         estimate D2E/DX2                !
 ! A62   A(27,29,30)           120.0111         estimate D2E/DX2                !
 ! A63   A(27,29,31)           120.1101         estimate D2E/DX2                !
 ! A64   A(30,29,31)           119.8736         estimate D2E/DX2                !
 ! A65   A(2,31,29)            125.7863         estimate D2E/DX2                !
 ! A66   A(2,31,54)            116.4468         estimate D2E/DX2                !
 ! A67   A(29,31,54)           117.6105         estimate D2E/DX2                !
 ! A68   A(2,32,33)            116.9883         estimate D2E/DX2                !
 ! A69   A(2,32,41)            123.8564         estimate D2E/DX2                !
 ! A70   A(33,32,41)           119.1048         estimate D2E/DX2                !
 ! A71   A(32,33,34)           119.449          estimate D2E/DX2                !
 ! A72   A(32,33,35)           120.5895         estimate D2E/DX2                !
 ! A73   A(34,33,35)           119.9612         estimate D2E/DX2                !
 ! A74   A(33,35,36)           119.8065         estimate D2E/DX2                !
 ! A75   A(33,35,37)           119.9393         estimate D2E/DX2                !
 ! A76   A(36,35,37)           120.2523         estimate D2E/DX2                !
 ! A77   A(35,37,38)           120.0807         estimate D2E/DX2                !
 ! A78   A(35,37,39)           119.85           estimate D2E/DX2                !
 ! A79   A(38,37,39)           120.0692         estimate D2E/DX2                !
 ! A80   A(37,39,40)           120.0532         estimate D2E/DX2                !
 ! A81   A(37,39,41)           120.3378         estimate D2E/DX2                !
 ! A82   A(40,39,41)           119.609          estimate D2E/DX2                !
 ! A83   A(32,41,39)           120.176          estimate D2E/DX2                !
 ! A84   A(32,41,42)           120.2101         estimate D2E/DX2                !
 ! A85   A(39,41,42)           119.6138         estimate D2E/DX2                !
 ! A86   A(2,43,44)            117.6461         estimate D2E/DX2                !
 ! A87   A(2,43,52)            123.2496         estimate D2E/DX2                !
 ! A88   A(44,43,52)           119.1028         estimate D2E/DX2                !
 ! A89   A(43,44,45)           119.7183         estimate D2E/DX2                !
 ! A90   A(43,44,46)           120.4964         estimate D2E/DX2                !
 ! A91   A(45,44,46)           119.7848         estimate D2E/DX2                !
 ! A92   A(44,46,47)           119.7765         estimate D2E/DX2                !
 ! A93   A(44,46,48)           120.0526         estimate D2E/DX2                !
 ! A94   A(47,46,48)           120.1665         estimate D2E/DX2                !
 ! A95   A(46,48,49)           120.0768         estimate D2E/DX2                !
 ! A96   A(46,48,50)           119.8072         estimate D2E/DX2                !
 ! A97   A(49,48,50)           120.1148         estimate D2E/DX2                !
 ! A98   A(48,50,51)           120.1046         estimate D2E/DX2                !
 ! A99   A(48,50,52)           120.2684         estimate D2E/DX2                !
 ! A100  A(51,50,52)           119.6261         estimate D2E/DX2                !
 ! A101  A(43,52,50)           120.2615         estimate D2E/DX2                !
 ! A102  A(43,52,53)           120.2289         estimate D2E/DX2                !
 ! A103  A(50,52,53)           119.509          estimate D2E/DX2                !
 ! A104  A(3,54,24)            119.8801         estimate D2E/DX2                !
 ! A105  A(3,54,31)            116.4391         estimate D2E/DX2                !
 ! A106  A(24,54,31)           123.6745         estimate D2E/DX2                !
 ! A107  A(3,55,15)            116.7736         estimate D2E/DX2                !
 ! A108  A(3,55,22)            119.4781         estimate D2E/DX2                !
 ! A109  A(15,55,22)           123.7256         estimate D2E/DX2                !
 ! A110  A(23,56,57)           112.2158         estimate D2E/DX2                !
 ! A111  A(23,56,58)           110.8907         estimate D2E/DX2                !
 ! A112  A(23,56,59)           111.022          estimate D2E/DX2                !
 ! A113  A(57,56,58)           108.0542         estimate D2E/DX2                !
 ! A114  A(57,56,59)           108.0767         estimate D2E/DX2                !
 ! A115  A(58,56,59)           106.3414         estimate D2E/DX2                !
 ! A116  A(23,60,61)           110.5057         estimate D2E/DX2                !
 ! A117  A(23,60,62)           111.9989         estimate D2E/DX2                !
 ! A118  A(23,60,63)           110.5654         estimate D2E/DX2                !
 ! A119  A(61,60,62)           107.7092         estimate D2E/DX2                !
 ! A120  A(61,60,63)           108.0926         estimate D2E/DX2                !
 ! A121  A(62,60,63)           107.8237         estimate D2E/DX2                !
 ! A122  A(1,64,65)            122.8302         estimate D2E/DX2                !
 ! A123  A(1,64,73)            117.9355         estimate D2E/DX2                !
 ! A124  A(65,64,73)           119.2242         estimate D2E/DX2                !
 ! A125  A(64,65,66)           120.0627         estimate D2E/DX2                !
 ! A126  A(64,65,67)           120.2287         estimate D2E/DX2                !
 ! A127  A(66,65,67)           119.708          estimate D2E/DX2                !
 ! A128  A(65,67,68)           119.7546         estimate D2E/DX2                !
 ! A129  A(65,67,69)           120.1763         estimate D2E/DX2                !
 ! A130  A(68,67,69)           120.0689         estimate D2E/DX2                !
 ! A131  A(67,69,70)           119.9792         estimate D2E/DX2                !
 ! A132  A(67,69,71)           119.9599         estimate D2E/DX2                !
 ! A133  A(70,69,71)           120.0605         estimate D2E/DX2                !
 ! A134  A(69,71,72)           120.1929         estimate D2E/DX2                !
 ! A135  A(69,71,73)           119.9723         estimate D2E/DX2                !
 ! A136  A(72,71,73)           119.8328         estimate D2E/DX2                !
 ! A137  A(64,73,71)           120.4366         estimate D2E/DX2                !
 ! A138  A(64,73,74)           119.4084         estimate D2E/DX2                !
 ! A139  A(71,73,74)           120.1544         estimate D2E/DX2                !
 ! A140  A(1,75,2)             113.6254         estimate D2E/DX2                !
 ! A141  A(1,75,92)            128.0842         estimate D2E/DX2                !
 ! A142  A(1,75,93)            111.3937         estimate D2E/DX2                !
 ! A143  A(2,75,92)            107.628          estimate D2E/DX2                !
 ! A144  A(2,75,93)            113.137          estimate D2E/DX2                !
 ! A145  A(92,75,93)            77.8218         estimate D2E/DX2                !
 ! A146  A(77,76,81)           122.4049         estimate D2E/DX2                !
 ! A147  A(77,76,92)           121.8382         estimate D2E/DX2                !
 ! A148  A(81,76,92)           115.7424         estimate D2E/DX2                !
 ! A149  A(76,77,78)           119.5461         estimate D2E/DX2                !
 ! A150  A(76,77,86)           121.7555         estimate D2E/DX2                !
 ! A151  A(78,77,86)           118.6878         estimate D2E/DX2                !
 ! A152  A(77,78,79)           118.3655         estimate D2E/DX2                !
 ! A153  A(77,78,95)           116.7998         estimate D2E/DX2                !
 ! A154  A(79,78,95)           124.834          estimate D2E/DX2                !
 ! A155  A(78,79,80)           117.9579         estimate D2E/DX2                !
 ! A156  A(78,79,87)           122.2129         estimate D2E/DX2                !
 ! A157  A(80,79,87)           119.829          estimate D2E/DX2                !
 ! A158  A(79,80,88)           119.7664         estimate D2E/DX2                !
 ! A159  A(79,80,92)           124.0389         estimate D2E/DX2                !
 ! A160  A(88,80,92)           116.1943         estimate D2E/DX2                !
 ! A161  A(76,81,82)           122.6245         estimate D2E/DX2                !
 ! A162  A(76,81,93)           115.5916         estimate D2E/DX2                !
 ! A163  A(82,81,93)           121.7836         estimate D2E/DX2                !
 ! A164  A(81,82,83)           119.5152         estimate D2E/DX2                !
 ! A165  A(81,82,89)           121.8176         estimate D2E/DX2                !
 ! A166  A(83,82,89)           118.6641         estimate D2E/DX2                !
 ! A167  A(82,83,84)           118.4064         estimate D2E/DX2                !
 ! A168  A(82,83,94)           116.8176         estimate D2E/DX2                !
 ! A169  A(84,83,94)           124.7758         estimate D2E/DX2                !
 ! A170  A(83,84,85)           117.9673         estimate D2E/DX2                !
 ! A171  A(83,84,90)           122.2297         estimate D2E/DX2                !
 ! A172  A(85,84,90)           119.8029         estimate D2E/DX2                !
 ! A173  A(84,85,91)           119.759          estimate D2E/DX2                !
 ! A174  A(84,85,93)           123.9355         estimate D2E/DX2                !
 ! A175  A(91,85,93)           116.3056         estimate D2E/DX2                !
 ! A176  A(75,92,76)           115.0631         estimate D2E/DX2                !
 ! A177  A(75,92,80)           125.7103         estimate D2E/DX2                !
 ! A178  A(76,92,80)           118.2512         estimate D2E/DX2                !
 ! A179  A(75,93,81)           115.0016         estimate D2E/DX2                !
 ! A180  A(75,93,85)           126.4243         estimate D2E/DX2                !
 ! A181  A(81,93,85)           118.3915         estimate D2E/DX2                !
 ! A182  A(83,94,96)           118.3919         estimate D2E/DX2                !
 ! A183  A(78,95,100)          118.4505         estimate D2E/DX2                !
 ! A184  A(94,96,97)           106.4439         estimate D2E/DX2                !
 ! A185  A(94,96,98)           111.3808         estimate D2E/DX2                !
 ! A186  A(94,96,99)           111.391          estimate D2E/DX2                !
 ! A187  A(97,96,98)           109.0814         estimate D2E/DX2                !
 ! A188  A(97,96,99)           109.0564         estimate D2E/DX2                !
 ! A189  A(98,96,99)           109.4015         estimate D2E/DX2                !
 ! A190  A(95,100,101)         106.4269         estimate D2E/DX2                !
 ! A191  A(95,100,102)         111.3547         estimate D2E/DX2                !
 ! A192  A(95,100,103)         111.4642         estimate D2E/DX2                !
 ! A193  A(101,100,102)        109.0812         estimate D2E/DX2                !
 ! A194  A(101,100,103)        109.0375         estimate D2E/DX2                !
 ! A195  A(102,100,103)        109.3891         estimate D2E/DX2                !
 ! D1    D(15,1,4,5)           164.3539         estimate D2E/DX2                !
 ! D2    D(15,1,4,13)          -18.5856         estimate D2E/DX2                !
 ! D3    D(64,1,4,5)            56.4454         estimate D2E/DX2                !
 ! D4    D(64,1,4,13)         -126.4942         estimate D2E/DX2                !
 ! D5    D(75,1,4,5)           -73.1416         estimate D2E/DX2                !
 ! D6    D(75,1,4,13)          103.9189         estimate D2E/DX2                !
 ! D7    D(4,1,15,16)         -106.8566         estimate D2E/DX2                !
 ! D8    D(4,1,15,55)           80.7062         estimate D2E/DX2                !
 ! D9    D(64,1,15,16)           1.3292         estimate D2E/DX2                !
 ! D10   D(64,1,15,55)        -171.1081         estimate D2E/DX2                !
 ! D11   D(75,1,15,16)         126.4304         estimate D2E/DX2                !
 ! D12   D(75,1,15,55)         -46.0068         estimate D2E/DX2                !
 ! D13   D(4,1,64,65)           31.3995         estimate D2E/DX2                !
 ! D14   D(4,1,64,73)         -149.7641         estimate D2E/DX2                !
 ! D15   D(15,1,64,65)         -78.2355         estimate D2E/DX2                !
 ! D16   D(15,1,64,73)         100.6009         estimate D2E/DX2                !
 ! D17   D(75,1,64,65)         161.059          estimate D2E/DX2                !
 ! D18   D(75,1,64,73)         -20.1046         estimate D2E/DX2                !
 ! D19   D(4,1,75,2)           -44.2848         estimate D2E/DX2                !
 ! D20   D(4,1,75,92)           95.4205         estimate D2E/DX2                !
 ! D21   D(4,1,75,93)         -173.4812         estimate D2E/DX2                !
 ! D22   D(15,1,75,2)           75.7659         estimate D2E/DX2                !
 ! D23   D(15,1,75,92)        -144.5287         estimate D2E/DX2                !
 ! D24   D(15,1,75,93)         -53.4305         estimate D2E/DX2                !
 ! D25   D(64,1,75,2)         -167.3034         estimate D2E/DX2                !
 ! D26   D(64,1,75,92)         -27.5981         estimate D2E/DX2                !
 ! D27   D(64,1,75,93)          63.5002         estimate D2E/DX2                !
 ! D28   D(32,2,31,29)          -1.075          estimate D2E/DX2                !
 ! D29   D(32,2,31,54)         174.25           estimate D2E/DX2                !
 ! D30   D(43,2,31,29)         108.4523         estimate D2E/DX2                !
 ! D31   D(43,2,31,54)         -76.2227         estimate D2E/DX2                !
 ! D32   D(75,2,31,29)        -125.1103         estimate D2E/DX2                !
 ! D33   D(75,2,31,54)          50.2147         estimate D2E/DX2                !
 ! D34   D(31,2,32,33)         -80.6068         estimate D2E/DX2                !
 ! D35   D(31,2,32,41)         102.004          estimate D2E/DX2                !
 ! D36   D(43,2,32,33)         170.3276         estimate D2E/DX2                !
 ! D37   D(43,2,32,41)          -7.0616         estimate D2E/DX2                !
 ! D38   D(75,2,32,33)          39.5425         estimate D2E/DX2                !
 ! D39   D(75,2,32,41)        -137.8467         estimate D2E/DX2                !
 ! D40   D(31,2,43,44)         170.6277         estimate D2E/DX2                !
 ! D41   D(31,2,43,52)          -8.9257         estimate D2E/DX2                !
 ! D42   D(32,2,43,44)         -80.2414         estimate D2E/DX2                !
 ! D43   D(32,2,43,52)         100.2052         estimate D2E/DX2                !
 ! D44   D(75,2,43,44)          49.3372         estimate D2E/DX2                !
 ! D45   D(75,2,43,52)        -130.2162         estimate D2E/DX2                !
 ! D46   D(31,2,75,1)          -79.5292         estimate D2E/DX2                !
 ! D47   D(31,2,75,92)         132.7548         estimate D2E/DX2                !
 ! D48   D(31,2,75,93)          48.7778         estimate D2E/DX2                !
 ! D49   D(32,2,75,1)          163.2822         estimate D2E/DX2                !
 ! D50   D(32,2,75,92)          15.5662         estimate D2E/DX2                !
 ! D51   D(32,2,75,93)         -68.4107         estimate D2E/DX2                !
 ! D52   D(43,2,75,1)           38.9021         estimate D2E/DX2                !
 ! D53   D(43,2,75,92)        -108.8139         estimate D2E/DX2                !
 ! D54   D(43,2,75,93)         167.2091         estimate D2E/DX2                !
 ! D55   D(55,3,54,24)          34.2575         estimate D2E/DX2                !
 ! D56   D(55,3,54,31)        -144.8618         estimate D2E/DX2                !
 ! D57   D(54,3,55,15)         144.0902         estimate D2E/DX2                !
 ! D58   D(54,3,55,22)         -34.2384         estimate D2E/DX2                !
 ! D59   D(1,4,5,6)             -2.1217         estimate D2E/DX2                !
 ! D60   D(1,4,5,7)            178.4588         estimate D2E/DX2                !
 ! D61   D(13,4,5,6)          -179.3108         estimate D2E/DX2                !
 ! D62   D(13,4,5,7)             1.2697         estimate D2E/DX2                !
 ! D63   D(1,4,13,11)         -177.4538         estimate D2E/DX2                !
 ! D64   D(1,4,13,14)            3.0762         estimate D2E/DX2                !
 ! D65   D(5,4,13,11)           -0.434          estimate D2E/DX2                !
 ! D66   D(5,4,13,14)         -179.9039         estimate D2E/DX2                !
 ! D67   D(4,5,7,8)            179.194          estimate D2E/DX2                !
 ! D68   D(4,5,7,9)             -1.1545         estimate D2E/DX2                !
 ! D69   D(6,5,7,8)             -0.2272         estimate D2E/DX2                !
 ! D70   D(6,5,7,9)            179.4243         estimate D2E/DX2                !
 ! D71   D(5,7,9,10)          -179.5584         estimate D2E/DX2                !
 ! D72   D(5,7,9,11)             0.1909         estimate D2E/DX2                !
 ! D73   D(8,7,9,10)             0.0915         estimate D2E/DX2                !
 ! D74   D(8,7,9,11)           179.8409         estimate D2E/DX2                !
 ! D75   D(7,9,11,12)         -179.7619         estimate D2E/DX2                !
 ! D76   D(7,9,11,13)            0.6436         estimate D2E/DX2                !
 ! D77   D(10,9,11,12)          -0.0126         estimate D2E/DX2                !
 ! D78   D(10,9,11,13)        -179.6071         estimate D2E/DX2                !
 ! D79   D(9,11,13,4)           -0.5179         estimate D2E/DX2                !
 ! D80   D(9,11,13,14)         178.9575         estimate D2E/DX2                !
 ! D81   D(12,11,13,4)         179.8851         estimate D2E/DX2                !
 ! D82   D(12,11,13,14)         -0.6395         estimate D2E/DX2                !
 ! D83   D(1,15,16,17)           6.8534         estimate D2E/DX2                !
 ! D84   D(1,15,16,18)        -171.831          estimate D2E/DX2                !
 ! D85   D(55,15,16,17)        179.3588         estimate D2E/DX2                !
 ! D86   D(55,15,16,18)          0.6744         estimate D2E/DX2                !
 ! D87   D(1,15,55,3)           -5.6568         estimate D2E/DX2                !
 ! D88   D(1,15,55,22)         172.5937         estimate D2E/DX2                !
 ! D89   D(16,15,55,3)        -178.6186         estimate D2E/DX2                !
 ! D90   D(16,15,55,22)         -0.3681         estimate D2E/DX2                !
 ! D91   D(15,16,18,19)        179.5995         estimate D2E/DX2                !
 ! D92   D(15,16,18,20)         -0.2685         estimate D2E/DX2                !
 ! D93   D(17,16,18,19)          0.9114         estimate D2E/DX2                !
 ! D94   D(17,16,18,20)       -178.9566         estimate D2E/DX2                !
 ! D95   D(16,18,20,21)        179.9301         estimate D2E/DX2                !
 ! D96   D(16,18,20,22)         -0.4877         estimate D2E/DX2                !
 ! D97   D(19,18,20,21)          0.0623         estimate D2E/DX2                !
 ! D98   D(19,18,20,22)        179.6445         estimate D2E/DX2                !
 ! D99   D(18,20,22,23)       -176.8549         estimate D2E/DX2                !
 ! D100  D(18,20,22,55)          0.7756         estimate D2E/DX2                !
 ! D101  D(21,20,22,23)          2.7255         estimate D2E/DX2                !
 ! D102  D(21,20,22,55)       -179.6441         estimate D2E/DX2                !
 ! D103  D(20,22,23,24)       -144.0304         estimate D2E/DX2                !
 ! D104  D(20,22,23,56)        -20.5394         estimate D2E/DX2                !
 ! D105  D(20,22,23,60)         99.9174         estimate D2E/DX2                !
 ! D106  D(55,22,23,24)         38.35           estimate D2E/DX2                !
 ! D107  D(55,22,23,56)        161.841          estimate D2E/DX2                !
 ! D108  D(55,22,23,60)        -77.7022         estimate D2E/DX2                !
 ! D109  D(20,22,55,3)         177.856          estimate D2E/DX2                !
 ! D110  D(20,22,55,15)         -0.3498         estimate D2E/DX2                !
 ! D111  D(23,22,55,3)          -4.3312         estimate D2E/DX2                !
 ! D112  D(23,22,55,15)        177.463          estimate D2E/DX2                !
 ! D113  D(22,23,24,25)        144.8839         estimate D2E/DX2                !
 ! D114  D(22,23,24,54)        -38.3363         estimate D2E/DX2                !
 ! D115  D(56,23,24,25)         21.3617         estimate D2E/DX2                !
 ! D116  D(56,23,24,54)       -161.8585         estimate D2E/DX2                !
 ! D117  D(60,23,24,25)        -98.9527         estimate D2E/DX2                !
 ! D118  D(60,23,24,54)         77.8271         estimate D2E/DX2                !
 ! D119  D(22,23,56,57)        -60.1411         estimate D2E/DX2                !
 ! D120  D(22,23,56,58)        178.9145         estimate D2E/DX2                !
 ! D121  D(22,23,56,59)         60.9249         estimate D2E/DX2                !
 ! D122  D(24,23,56,57)         60.4107         estimate D2E/DX2                !
 ! D123  D(24,23,56,58)        -60.5337         estimate D2E/DX2                !
 ! D124  D(24,23,56,59)       -178.5233         estimate D2E/DX2                !
 ! D125  D(60,23,56,57)       -179.9861         estimate D2E/DX2                !
 ! D126  D(60,23,56,58)         59.0695         estimate D2E/DX2                !
 ! D127  D(60,23,56,59)        -58.92           estimate D2E/DX2                !
 ! D128  D(22,23,60,61)        178.2947         estimate D2E/DX2                !
 ! D129  D(22,23,60,62)         58.2045         estimate D2E/DX2                !
 ! D130  D(22,23,60,63)        -62.0719         estimate D2E/DX2                !
 ! D131  D(24,23,60,61)         62.8425         estimate D2E/DX2                !
 ! D132  D(24,23,60,62)        -57.2477         estimate D2E/DX2                !
 ! D133  D(24,23,60,63)       -177.5241         estimate D2E/DX2                !
 ! D134  D(56,23,60,61)        -59.3489         estimate D2E/DX2                !
 ! D135  D(56,23,60,62)       -179.4391         estimate D2E/DX2                !
 ! D136  D(56,23,60,63)         60.2845         estimate D2E/DX2                !
 ! D137  D(23,24,25,26)         -3.4737         estimate D2E/DX2                !
 ! D138  D(23,24,25,27)        175.8584         estimate D2E/DX2                !
 ! D139  D(54,24,25,26)        179.7374         estimate D2E/DX2                !
 ! D140  D(54,24,25,27)         -0.9306         estimate D2E/DX2                !
 ! D141  D(23,24,54,3)           4.4651         estimate D2E/DX2                !
 ! D142  D(23,24,54,31)       -176.4825         estimate D2E/DX2                !
 ! D143  D(25,24,54,3)        -178.4774         estimate D2E/DX2                !
 ! D144  D(25,24,54,31)          0.575          estimate D2E/DX2                !
 ! D145  D(24,25,27,28)       -179.3989         estimate D2E/DX2                !
 ! D146  D(24,25,27,29)          0.3645         estimate D2E/DX2                !
 ! D147  D(26,25,27,28)         -0.0639         estimate D2E/DX2                !
 ! D148  D(26,25,27,29)        179.6994         estimate D2E/DX2                !
 ! D149  D(25,27,29,30)        179.7803         estimate D2E/DX2                !
 ! D150  D(25,27,29,31)          0.6126         estimate D2E/DX2                !
 ! D151  D(28,27,29,30)         -0.4563         estimate D2E/DX2                !
 ! D152  D(28,27,29,31)       -179.624          estimate D2E/DX2                !
 ! D153  D(27,29,31,2)         174.3267         estimate D2E/DX2                !
 ! D154  D(27,29,31,54)         -0.9495         estimate D2E/DX2                !
 ! D155  D(30,29,31,2)          -4.8421         estimate D2E/DX2                !
 ! D156  D(30,29,31,54)        179.8817         estimate D2E/DX2                !
 ! D157  D(2,31,54,3)            3.719          estimate D2E/DX2                !
 ! D158  D(2,31,54,24)        -175.3634         estimate D2E/DX2                !
 ! D159  D(29,31,54,3)         179.44           estimate D2E/DX2                !
 ! D160  D(29,31,54,24)          0.3576         estimate D2E/DX2                !
 ! D161  D(2,32,33,34)           2.3267         estimate D2E/DX2                !
 ! D162  D(2,32,33,35)        -177.887          estimate D2E/DX2                !
 ! D163  D(41,32,33,34)        179.8454         estimate D2E/DX2                !
 ! D164  D(41,32,33,35)         -0.3683         estimate D2E/DX2                !
 ! D165  D(2,32,41,39)         177.3014         estimate D2E/DX2                !
 ! D166  D(2,32,41,42)          -2.5984         estimate D2E/DX2                !
 ! D167  D(33,32,41,39)         -0.0358         estimate D2E/DX2                !
 ! D168  D(33,32,41,42)       -179.9356         estimate D2E/DX2                !
 ! D169  D(32,33,35,36)       -179.8926         estimate D2E/DX2                !
 ! D170  D(32,33,35,37)          0.6173         estimate D2E/DX2                !
 ! D171  D(34,33,35,36)         -0.1074         estimate D2E/DX2                !
 ! D172  D(34,33,35,37)       -179.5975         estimate D2E/DX2                !
 ! D173  D(33,35,37,38)        179.428          estimate D2E/DX2                !
 ! D174  D(33,35,37,39)         -0.4588         estimate D2E/DX2                !
 ! D175  D(36,35,37,38)         -0.0599         estimate D2E/DX2                !
 ! D176  D(36,35,37,39)       -179.9466         estimate D2E/DX2                !
 ! D177  D(35,37,39,40)       -179.8697         estimate D2E/DX2                !
 ! D178  D(35,37,39,41)          0.0569         estimate D2E/DX2                !
 ! D179  D(38,37,39,40)          0.2435         estimate D2E/DX2                !
 ! D180  D(38,37,39,41)       -179.8299         estimate D2E/DX2                !
 ! D181  D(37,39,41,32)          0.1903         estimate D2E/DX2                !
 ! D182  D(37,39,41,42)       -179.9093         estimate D2E/DX2                !
 ! D183  D(40,39,41,32)       -179.8828         estimate D2E/DX2                !
 ! D184  D(40,39,41,42)          0.0176         estimate D2E/DX2                !
 ! D185  D(2,43,44,45)          -0.4707         estimate D2E/DX2                !
 ! D186  D(2,43,44,46)         179.2844         estimate D2E/DX2                !
 ! D187  D(52,43,44,45)        179.1018         estimate D2E/DX2                !
 ! D188  D(52,43,44,46)         -1.143          estimate D2E/DX2                !
 ! D189  D(2,43,52,50)         179.93           estimate D2E/DX2                !
 ! D190  D(2,43,52,53)          -0.3383         estimate D2E/DX2                !
 ! D191  D(44,43,52,50)          0.3827         estimate D2E/DX2                !
 ! D192  D(44,43,52,53)       -179.8855         estimate D2E/DX2                !
 ! D193  D(43,44,46,47)       -179.7027         estimate D2E/DX2                !
 ! D194  D(43,44,46,48)          1.0677         estimate D2E/DX2                !
 ! D195  D(45,44,46,47)          0.0522         estimate D2E/DX2                !
 ! D196  D(45,44,46,48)       -179.1773         estimate D2E/DX2                !
 ! D197  D(44,46,48,49)        179.3742         estimate D2E/DX2                !
 ! D198  D(44,46,48,50)         -0.2212         estimate D2E/DX2                !
 ! D199  D(47,46,48,49)          0.1478         estimate D2E/DX2                !
 ! D200  D(47,46,48,50)       -179.4477         estimate D2E/DX2                !
 ! D201  D(46,48,50,51)        179.815          estimate D2E/DX2                !
 ! D202  D(46,48,50,52)         -0.5369         estimate D2E/DX2                !
 ! D203  D(49,48,50,51)          0.2197         estimate D2E/DX2                !
 ! D204  D(49,48,50,52)        179.8678         estimate D2E/DX2                !
 ! D205  D(48,50,52,43)          0.4528         estimate D2E/DX2                !
 ! D206  D(48,50,52,53)       -179.2809         estimate D2E/DX2                !
 ! D207  D(51,50,52,43)       -179.8974         estimate D2E/DX2                !
 ! D208  D(51,50,52,53)          0.3689         estimate D2E/DX2                !
 ! D209  D(1,64,65,66)          -0.9506         estimate D2E/DX2                !
 ! D210  D(1,64,65,67)         178.7673         estimate D2E/DX2                !
 ! D211  D(73,64,65,66)       -179.7727         estimate D2E/DX2                !
 ! D212  D(73,64,65,67)         -0.0547         estimate D2E/DX2                !
 ! D213  D(1,64,73,71)        -178.464          estimate D2E/DX2                !
 ! D214  D(1,64,73,74)           1.791          estimate D2E/DX2                !
 ! D215  D(65,64,73,71)          0.4157         estimate D2E/DX2                !
 ! D216  D(65,64,73,74)       -179.3293         estimate D2E/DX2                !
 ! D217  D(64,65,67,68)        179.9513         estimate D2E/DX2                !
 ! D218  D(64,65,67,69)         -0.2312         estimate D2E/DX2                !
 ! D219  D(66,65,67,68)         -0.3298         estimate D2E/DX2                !
 ! D220  D(66,65,67,69)        179.4877         estimate D2E/DX2                !
 ! D221  D(65,67,69,70)        179.9326         estimate D2E/DX2                !
 ! D222  D(65,67,69,71)          0.1587         estimate D2E/DX2                !
 ! D223  D(68,67,69,70)         -0.2505         estimate D2E/DX2                !
 ! D224  D(68,67,69,71)        179.9757         estimate D2E/DX2                !
 ! D225  D(67,69,71,72)        179.6855         estimate D2E/DX2                !
 ! D226  D(67,69,71,73)          0.2011         estimate D2E/DX2                !
 ! D227  D(70,69,71,72)         -0.0882         estimate D2E/DX2                !
 ! D228  D(70,69,71,73)       -179.5726         estimate D2E/DX2                !
 ! D229  D(69,71,73,64)         -0.4904         estimate D2E/DX2                !
 ! D230  D(69,71,73,74)        179.2527         estimate D2E/DX2                !
 ! D231  D(72,71,73,64)       -179.9766         estimate D2E/DX2                !
 ! D232  D(72,71,73,74)         -0.2336         estimate D2E/DX2                !
 ! D233  D(1,75,92,76)         113.0569         estimate D2E/DX2                !
 ! D234  D(1,75,92,80)         -78.5058         estimate D2E/DX2                !
 ! D235  D(2,75,92,76)        -105.3841         estimate D2E/DX2                !
 ! D236  D(2,75,92,80)          63.0532         estimate D2E/DX2                !
 ! D237  D(93,75,92,76)          5.2995         estimate D2E/DX2                !
 ! D238  D(93,75,92,80)        173.7368         estimate D2E/DX2                !
 ! D239  D(1,75,93,81)        -126.315          estimate D2E/DX2                !
 ! D240  D(1,75,93,85)          48.6614         estimate D2E/DX2                !
 ! D241  D(2,75,93,81)         104.2308         estimate D2E/DX2                !
 ! D242  D(2,75,93,85)         -80.7927         estimate D2E/DX2                !
 ! D243  D(92,75,93,81)          0.0672         estimate D2E/DX2                !
 ! D244  D(92,75,93,85)        175.0437         estimate D2E/DX2                !
 ! D245  D(81,76,77,78)        178.3555         estimate D2E/DX2                !
 ! D246  D(81,76,77,86)         -0.4457         estimate D2E/DX2                !
 ! D247  D(92,76,77,78)         -0.1977         estimate D2E/DX2                !
 ! D248  D(92,76,77,86)       -178.9989         estimate D2E/DX2                !
 ! D249  D(77,76,81,82)         10.8959         estimate D2E/DX2                !
 ! D250  D(77,76,81,93)       -168.93           estimate D2E/DX2                !
 ! D251  D(92,76,81,82)       -170.4686         estimate D2E/DX2                !
 ! D252  D(92,76,81,93)          9.7054         estimate D2E/DX2                !
 ! D253  D(77,76,92,75)        169.1108         estimate D2E/DX2                !
 ! D254  D(77,76,92,80)         -0.242          estimate D2E/DX2                !
 ! D255  D(81,76,92,75)         -9.5331         estimate D2E/DX2                !
 ! D256  D(81,76,92,80)       -178.8859         estimate D2E/DX2                !
 ! D257  D(76,77,78,79)          0.4649         estimate D2E/DX2                !
 ! D258  D(76,77,78,95)       -179.2434         estimate D2E/DX2                !
 ! D259  D(86,77,78,79)        179.3029         estimate D2E/DX2                !
 ! D260  D(86,77,78,95)         -0.4054         estimate D2E/DX2                !
 ! D261  D(77,78,79,80)         -0.3017         estimate D2E/DX2                !
 ! D262  D(77,78,79,87)        179.852          estimate D2E/DX2                !
 ! D263  D(95,78,79,80)        179.3811         estimate D2E/DX2                !
 ! D264  D(95,78,79,87)         -0.4651         estimate D2E/DX2                !
 ! D265  D(77,78,95,100)       178.7322         estimate D2E/DX2                !
 ! D266  D(79,78,95,100)        -0.9551         estimate D2E/DX2                !
 ! D267  D(78,79,80,88)       -179.9095         estimate D2E/DX2                !
 ! D268  D(78,79,80,92)         -0.1461         estimate D2E/DX2                !
 ! D269  D(87,79,80,88)         -0.0595         estimate D2E/DX2                !
 ! D270  D(87,79,80,92)        179.7039         estimate D2E/DX2                !
 ! D271  D(79,80,92,75)       -167.684          estimate D2E/DX2                !
 ! D272  D(79,80,92,76)          0.421          estimate D2E/DX2                !
 ! D273  D(88,80,92,75)         12.0872         estimate D2E/DX2                !
 ! D274  D(88,80,92,76)       -179.8079         estimate D2E/DX2                !
 ! D275  D(76,81,82,83)       -179.5907         estimate D2E/DX2                !
 ! D276  D(76,81,82,89)          1.0555         estimate D2E/DX2                !
 ! D277  D(93,81,82,83)          0.2246         estimate D2E/DX2                !
 ! D278  D(93,81,82,89)       -179.1291         estimate D2E/DX2                !
 ! D279  D(76,81,93,75)         -4.9839         estimate D2E/DX2                !
 ! D280  D(76,81,93,85)        179.6099         estimate D2E/DX2                !
 ! D281  D(82,81,93,75)        175.1885         estimate D2E/DX2                !
 ! D282  D(82,81,93,85)         -0.2176         estimate D2E/DX2                !
 ! D283  D(81,82,83,84)         -0.0686         estimate D2E/DX2                !
 ! D284  D(81,82,83,94)       -179.9477         estimate D2E/DX2                !
 ! D285  D(89,82,83,84)        179.3055         estimate D2E/DX2                !
 ! D286  D(89,82,83,94)         -0.5735         estimate D2E/DX2                !
 ! D287  D(82,83,84,85)         -0.0807         estimate D2E/DX2                !
 ! D288  D(82,83,84,90)       -179.9579         estimate D2E/DX2                !
 ! D289  D(94,83,84,85)        179.7878         estimate D2E/DX2                !
 ! D290  D(94,83,84,90)         -0.0894         estimate D2E/DX2                !
 ! D291  D(82,83,94,96)       -179.9535         estimate D2E/DX2                !
 ! D292  D(84,83,94,96)          0.176          estimate D2E/DX2                !
 ! D293  D(83,84,85,91)       -179.8558         estimate D2E/DX2                !
 ! D294  D(83,84,85,93)          0.0904         estimate D2E/DX2                !
 ! D295  D(90,84,85,91)          0.0245         estimate D2E/DX2                !
 ! D296  D(90,84,85,93)        179.9707         estimate D2E/DX2                !
 ! D297  D(84,85,93,75)       -174.7662         estimate D2E/DX2                !
 ! D298  D(84,85,93,81)          0.058          estimate D2E/DX2                !
 ! D299  D(91,85,93,75)          5.1817         estimate D2E/DX2                !
 ! D300  D(91,85,93,81)       -179.994          estimate D2E/DX2                !
 ! D301  D(83,94,96,97)        179.7918         estimate D2E/DX2                !
 ! D302  D(83,94,96,98)        -61.4184         estimate D2E/DX2                !
 ! D303  D(83,94,96,99)         61.0265         estimate D2E/DX2                !
 ! D304  D(78,95,100,101)     -179.4177         estimate D2E/DX2                !
 ! D305  D(78,95,100,102)      -60.6528         estimate D2E/DX2                !
 ! D306  D(78,95,100,103)       61.8098         estimate D2E/DX2                !
 --------------------------------------------------------------------------------
 Trust Radius=3.00D-01 FncErr=1.00D-07 GrdErr=1.00D-06 EigMax=2.50D+02 EigMin=1.00D-04
 Number of steps in this run=    618 maximum allowed number of steps=    618.
 GradGradGradGradGradGradGradGradGradGradGradGradGradGradGradGradGradGrad

 Leave Link  103 at Wed Nov 22 13:30:46 2023, MaxMem=  2831155200 cpu:               0.1 elap:               0.0
 (Enter /opt/software/packages/g16/l202.exe)
 Symmetry turned off by external request.
 Stoichiometry    C51H44CuN2O3P2
                          Input orientation:                          
 ---------------------------------------------------------------------
 Center     Atomic      Atomic             Coordinates (Angstroms)
 Number     Number       Type             X           Y           Z
 ---------------------------------------------------------------------
      1         15           0        1.156532    0.858177    1.666424
      2         15           0        0.008026   -1.810670   -0.846475
      3          8           0        2.280294   -0.079254   -0.859435
      4          6           0        2.183570   -0.365367    2.558627
      5          6           0        1.623481   -0.985009    3.688343
      6          1           0        0.619749   -0.702798    4.024391
      7          6           0        2.339377   -1.948430    4.393488
      8          1           0        1.896679   -2.412812    5.278227
      9          6           0        3.614965   -2.324776    3.967328
     10          1           0        4.174446   -3.086195    4.516305
     11          6           0        4.169123   -1.728745    2.835749
     12          1           0        5.165234   -2.020906    2.493951
     13          6           0        3.461726   -0.749781    2.135883
     14          1           0        3.919134   -0.280835    1.260436
     15          6           0        2.323651    1.784610    0.593436
     16          6           0        2.735376    3.102506    0.833510
     17          1           0        2.447618    3.603001    1.761103
     18          6           0        3.488137    3.790901   -0.116319
     19          1           0        3.796108    4.819698    0.082181
     20          6           0        3.849400    3.180243   -1.318099
     21          1           0        4.438515    3.739757   -2.047716
     22          6           0        3.473326    1.862467   -1.591399
     23          6           0        3.869477    1.076365   -2.837588
     24          6           0        2.680130    0.196923   -3.207517
     25          6           0        2.284639   -0.129504   -4.508463
     26          1           0        2.812781    0.302803   -5.360979
     27          6           0        1.228687   -1.014617   -4.734352
     28          1           0        0.942211   -1.263724   -5.758374
     29          6           0        0.538743   -1.588057   -3.666591
     30          1           0       -0.288609   -2.276874   -3.856922
     31          6           0        0.892253   -1.269872   -2.350129
     32          6           0       -1.397364   -2.790409   -1.480914
     33          6           0       -2.518951   -2.076573   -1.934322
     34          1           0       -2.498536   -0.980971   -1.928993
     35          6           0       -3.649043   -2.748794   -2.392318
     36          1           0       -4.513960   -2.180551   -2.743869
     37          6           0       -3.677785   -4.145100   -2.391040
     38          1           0       -4.566917   -4.674873   -2.741168
     39          6           0       -2.569852   -4.861783   -1.939603
     40          1           0       -2.587942   -5.954333   -1.939154
     41          6           0       -1.432495   -4.190748   -1.487803
     42          1           0       -0.569804   -4.764578   -1.137784
     43          6           0        1.127757   -3.040304   -0.089101
     44          6           0        0.815530   -3.498247    1.200048
     45          1           0       -0.070086   -3.109621    1.714799
     46          6           0        1.620073   -4.446466    1.827494
     47          1           0        1.363198   -4.798481    2.829713
     48          6           0        2.759323   -4.932722    1.183765
     49          1           0        3.396416   -5.669055    1.679847
     50          6           0        3.086357   -4.469795   -0.090350
     51          1           0        3.978687   -4.844884   -0.597488
     52          6           0        2.273714   -3.531740   -0.727834
     53          1           0        2.535543   -3.185957   -1.732060
     54          6           0        1.961454   -0.384127   -2.160806
     55          6           0        2.713276    1.201472   -0.621330
     56          6           0        4.289526    1.985733   -3.982461
     57          1           0        3.483691    2.669095   -4.287868
     58          1           0        4.587945    1.397634   -4.860328
     59          1           0        5.162568    2.591003   -3.704758
     60          6           0        5.046138    0.152556   -2.467373
     61          1           0        5.344668   -0.456836   -3.332974
     62          1           0        4.788657   -0.534302   -1.647365
     63          1           0        5.917039    0.744558   -2.149756
     64          6           0        0.726261    2.077677    2.960223
     65          6           0        1.575352    2.376657    4.036066
     66          1           0        2.535212    1.861100    4.136477
     67          6           0        1.204059    3.334424    4.977691
     68          1           0        1.871041    3.560659    5.813083
     69          6           0       -0.013906    4.005996    4.853116
     70          1           0       -0.302332    4.755619    5.593932
     71          6           0       -0.863242    3.715812    3.785683
     72          1           0       -1.819329    4.235249    3.687357
     73          6           0       -0.497254    2.752211    2.846032
     74          1           0       -1.167606    2.513183    2.013209
     75         29           0       -0.563046    0.039991    0.424174
     76          6           0       -3.454914    0.631118    0.312270
     77          6           0       -4.831828    0.459554    0.400874
     78          6           0       -5.350342   -0.568890    1.200170
     79          6           0       -4.450776   -1.389774    1.896483
     80          6           0       -3.093282   -1.139798    1.748622
     81          6           0       -2.838122    1.673386   -0.540462
     82          6           0       -3.577705    2.688933   -1.136204
     83          6           0       -2.927613    3.637443   -1.938621
     84          6           0       -1.539984    3.526612   -2.111537
     85          6           0       -0.885928    2.480752   -1.474393
[...]
 Alpha virt. eigenvalues --    0.70212   0.70445   0.70556   0.70773   0.71161
 Alpha virt. eigenvalues --    0.71302   0.71373   0.71722   0.72049   0.72442
 Alpha virt. eigenvalues --    0.72908   0.73133   0.73444   0.73556   0.73919
 Alpha virt. eigenvalues --    0.74089   0.74162   0.74672   0.74944   0.75146
 Alpha virt. eigenvalues --    0.75266   0.75399   0.75759   0.75977   0.76152
 Alpha virt. eigenvalues --    0.76285   0.76698   0.76994   0.77168   0.77657
 Alpha virt. eigenvalues --    0.78163   0.78698   0.78881   0.78991   0.79629
 Alpha virt. eigenvalues --    0.79716   0.79969   0.80434   0.80754   0.81233
 Alpha virt. eigenvalues --    0.81322   0.81980   0.82450   0.82807   0.83060
 Alpha virt. eigenvalues --    0.83527   0.84033   0.84514   0.84812   0.85384
 Alpha virt. eigenvalues --    0.85717   0.85917   0.86791   0.87086   0.87630
 Alpha virt. eigenvalues --    0.88066   0.88732   0.88996   0.89473   0.89719
 Alpha virt. eigenvalues --    0.90009   0.90618   0.91197   0.91383   0.91703
 Alpha virt. eigenvalues --    0.92427   0.92873   0.93811   0.94018   0.94250
 Alpha virt. eigenvalues --    0.94489   0.95000   0.95824   0.95975   0.96422
 Alpha virt. eigenvalues --    0.96894   0.97476   0.98145   0.98227   0.98737
 Alpha virt. eigenvalues --    0.98938   0.99471   1.00288   1.00561   1.01271
 Alpha virt. eigenvalues --    1.01457   1.02074   1.02837   1.03326   1.03435
 Alpha virt. eigenvalues --    1.04470   1.05303   1.05676   1.06308   1.07481
 Alpha virt. eigenvalues --    1.07532   1.08176   1.08796   1.09466   1.09876
 Alpha virt. eigenvalues --    1.10595   1.11241   1.11454   1.11836   1.12374
 Alpha virt. eigenvalues --    1.12722   1.13284   1.13590   1.14187   1.14567
 Alpha virt. eigenvalues --    1.14650   1.14952   1.15180   1.15585   1.16012
 Alpha virt. eigenvalues --    1.16330   1.16567   1.17002   1.17213   1.17564
 Alpha virt. eigenvalues --    1.18240   1.18388   1.18519   1.18816   1.18904
 Alpha virt. eigenvalues --    1.19175   1.19323   1.19579   1.19999   1.20501
 Alpha virt. eigenvalues --    1.20691   1.21095   1.21202   1.21705   1.21899
 Alpha virt. eigenvalues --    1.21989   1.22177   1.22587   1.22740   1.22947
 Alpha virt. eigenvalues --    1.23062   1.23591   1.23800   1.24048   1.24341
 Alpha virt. eigenvalues --    1.24502   1.24849   1.25152   1.25531   1.25967
 Alpha virt. eigenvalues --    1.26187   1.26280   1.26800   1.27144   1.27304
 Alpha virt. eigenvalues --    1.27884   1.28165   1.28450   1.28762   1.29958
 Alpha virt. eigenvalues --    1.30879   1.31105   1.31524   1.31678   1.32848
 Alpha virt. eigenvalues --    1.33084   1.33807   1.34534   1.35363   1.36932
 Alpha virt. eigenvalues --    1.38243   1.38997   1.39693   1.40239   1.40546
 Alpha virt. eigenvalues --    1.42032   1.42579   1.42900   1.43191   1.44729
 Alpha virt. eigenvalues --    1.45212   1.46576   1.46882   1.48070   1.48310
 Alpha virt. eigenvalues --    1.48402   1.49309   1.50052   1.50238   1.50444
 Alpha virt. eigenvalues --    1.51691   1.52031   1.52245   1.52589   1.53072
 Alpha virt. eigenvalues --    1.53756   1.54570   1.54651   1.56519   1.57142
 Alpha virt. eigenvalues --    1.57418   1.58100   1.59150   1.59896   1.60645
 Alpha virt. eigenvalues --    1.60957   1.62421   1.62818   1.63226   1.63431
 Alpha virt. eigenvalues --    1.63531   1.63993   1.64373   1.64795   1.65586
 Alpha virt. eigenvalues --    1.66196   1.66388   1.66921   1.67022   1.67153
 Alpha virt. eigenvalues --    1.67351   1.67536   1.67673   1.67758   1.68354
 Alpha virt. eigenvalues --    1.69000   1.69379   1.69487   1.69677   1.69874
 Alpha virt. eigenvalues --    1.70131   1.70374   1.70604   1.70737   1.70956
 Alpha virt. eigenvalues --    1.71605   1.71699   1.71947   1.72130   1.72480
 Alpha virt. eigenvalues --    1.72523   1.72828   1.73051   1.73177   1.73493
 Alpha virt. eigenvalues --    1.73587   1.73945   1.73971   1.74211   1.74639
 Alpha virt. eigenvalues --    1.74681   1.74762   1.74985   1.75230   1.75369
 Alpha virt. eigenvalues --    1.75419   1.75630   1.75852   1.76127   1.76227
 Alpha virt. eigenvalues --    1.76607   1.76897   1.76922   1.77350   1.77504
 Alpha virt. eigenvalues --    1.77729   1.77867   1.78264   1.78330   1.78961
 Alpha virt. eigenvalues --    1.79071   1.79213   1.79433   1.79749   1.79981
 Alpha virt. eigenvalues --    1.80303   1.80789   1.80945   1.81482   1.81838
 Alpha virt. eigenvalues --    1.82554   1.82959   1.83418   1.83956   1.84703
 Alpha virt. eigenvalues --    1.85404   1.85579   1.86145   1.86726   1.87119
 Alpha virt. eigenvalues --    1.87294   1.87570   1.87676   1.87766   1.88185
 Alpha virt. eigenvalues --    1.88693   1.89043   1.89759   1.90014   1.90810
 Alpha virt. eigenvalues --    1.90946   1.92111   1.93030   1.93491   1.93527
 Alpha virt. eigenvalues --    1.93625   1.94274   1.94563   1.94705   1.95156
 Alpha virt. eigenvalues --    1.95599   1.95827   1.95884   1.95995   1.96156
 Alpha virt. eigenvalues --    1.96495   1.96686   1.96977   1.97201   1.97520
 Alpha virt. eigenvalues --    1.97633   1.98023   1.98486   1.98801   1.98960
 Alpha virt. eigenvalues --    1.99148   1.99447   1.99632   1.99895   2.00084
 Alpha virt. eigenvalues --    2.00238   2.00532   2.01052   2.01422   2.01913
 Alpha virt. eigenvalues --    2.02177   2.02646   2.03076   2.03636   2.04875
 Alpha virt. eigenvalues --    2.05095   2.05382   2.07270   2.07695   2.08286
 Alpha virt. eigenvalues --    2.08645   2.09159   2.10194   2.10674   2.11252
 Alpha virt. eigenvalues --    2.12413   2.12430   2.12864   2.12911   2.14109
 Alpha virt. eigenvalues --    2.14132   2.14590   2.15061   2.15481   2.15545
 Alpha virt. eigenvalues --    2.15900   2.16832   2.17089   2.17478   2.18005
 Alpha virt. eigenvalues --    2.18305   2.19380   2.20042   2.20175   2.20522
 Alpha virt. eigenvalues --    2.20687   2.21134   2.21280   2.21572   2.21651
 Alpha virt. eigenvalues --    2.22411   2.23236   2.24257   2.24863   2.25501
 Alpha virt. eigenvalues --    2.25900   2.26508   2.26812   2.26949   2.27598
 Alpha virt. eigenvalues --    2.28480   2.28580   2.28888   2.28932   2.29187
 Alpha virt. eigenvalues --    2.29339   2.29705   2.30163   2.30595   2.30702
 Alpha virt. eigenvalues --    2.30730   2.30883   2.30995   2.31154   2.31370
 Alpha virt. eigenvalues --    2.31576   2.31770   2.31988   2.32277   2.33543
 Alpha virt. eigenvalues --    2.33669   2.34153   2.34509   2.34931   2.35302
 Alpha virt. eigenvalues --    2.35606   2.35618   2.35795   2.35955   2.36581
 Alpha virt. eigenvalues --    2.36610   2.37045   2.37180   2.37518   2.37677
 Alpha virt. eigenvalues --    2.38202   2.38270   2.38608   2.39825   2.41271
 Alpha virt. eigenvalues --    2.42152   2.42604   2.42706   2.43191   2.44123
 Alpha virt. eigenvalues --    2.44725   2.46057   2.47354   2.47807   2.48416
 Alpha virt. eigenvalues --    2.50404   2.53474   2.54042   2.54465   2.54708
 Alpha virt. eigenvalues --    2.54995   2.55035   2.55894   2.56308   2.58480
 Alpha virt. eigenvalues --    2.60280   2.61671   2.62154   2.62336   2.63179
 Alpha virt. eigenvalues --    2.63227   2.63742   2.64195   2.64232   2.64486
 Alpha virt. eigenvalues --    2.64666   2.64881   2.65044   2.65112   2.65192
 Alpha virt. eigenvalues --    2.65325   2.65630   2.65811   2.66171   2.66794
 Alpha virt. eigenvalues --    2.67061   2.67139   2.67364   2.68183   2.68730
 Alpha virt. eigenvalues --    2.68881   2.69281   2.69476   2.71728   2.72412
 Alpha virt. eigenvalues --    2.72534   2.72630   2.73061   2.73292   2.73659
 Alpha virt. eigenvalues --    2.74046   2.74453   2.74627   2.74727   2.75209
 Alpha virt. eigenvalues --    2.75592   2.76140   2.77161   2.77347   2.77905
 Alpha virt. eigenvalues --    2.78623   2.80901   2.81884   2.82346   2.84088
 Alpha virt. eigenvalues --    2.85503   2.85956   2.86238   2.86510   2.87058
 Alpha virt. eigenvalues --    2.87148   2.87597   2.87755   2.88785   2.89126
 Alpha virt. eigenvalues --    2.89347   2.90257   2.90778   2.91213   2.91225
 Alpha virt. eigenvalues --    2.91474   2.91964   2.92143   2.92475   2.92721
 Alpha virt. eigenvalues --    2.92860   2.94272   2.94601   2.95301   2.95957
 Alpha virt. eigenvalues --    2.97455   2.98455   2.99106   3.00460   3.00777
 Alpha virt. eigenvalues --    3.01011   3.01668   3.02246   3.02340   3.04021
 Alpha virt. eigenvalues --    3.05993   3.07086   3.07282   3.07317   3.07387
 Alpha virt. eigenvalues --    3.08141   3.08310   3.08555   3.09030   3.09145
 Alpha virt. eigenvalues --    3.10447   3.11062   3.11746   3.12569   3.24983
 Alpha virt. eigenvalues --    3.25396   3.25864   3.26033   3.26254   3.26422
 Alpha virt. eigenvalues --    3.26715   3.37901   3.42265   3.43002   3.44532
 Alpha virt. eigenvalues --    3.46254   3.51335   3.55814   3.56610   3.56697
 Alpha virt. eigenvalues --    3.57456   3.57490   3.60193   3.67731   3.71966
 Alpha virt. eigenvalues --    3.74572   5.79576   5.79753   5.79850   5.79914
 Alpha virt. eigenvalues --    5.80102   5.81731   5.82063
          Condensed to atoms (all electrons):
 Mulliken charges:
               1
     1  P    0.457397
     2  P    0.449350
     3  O   -0.401486
     4  C   -0.135538
     5  C   -0.049031
     6  H    0.052638
     7  C   -0.052336
     8  H    0.062402
     9  C   -0.045895
    10  H    0.062357
    11  C   -0.034024
    12  H    0.058217
    13  C   -0.038821
    14  H    0.041405
    15  C   -0.201863
    16  C   -0.057402
    17  H    0.056327
    18  C   -0.034356
    19  H    0.059955
    20  C   -0.088511
    21  H    0.050911
    22  C   -0.002426
    23  C   -0.212153
    24  C   -0.006765
    25  C   -0.090117
    26  H    0.050454
    27  C   -0.034374
    28  H    0.059927
    29  C   -0.064102
    30  H    0.056363
    31  C   -0.216263
    32  C   -0.172772
    33  C   -0.021746
    34  H    0.039603
    35  C   -0.046635
    36  H    0.060751
    37  C   -0.045762
    38  H    0.066184
    39  C   -0.041771
    40  H    0.064218
    41  C   -0.038757
    42  H    0.055160
    43  C   -0.172865
    44  C   -0.010238
    45  H    0.034086
    46  C   -0.029147
    47  H    0.057192
    48  C   -0.048231
    49  H    0.063339
    50  C   -0.042844
    51  H    0.062593
    52  C   -0.035424
    53  H    0.054160
    54  C    0.248027
    55  C    0.227797
    56  C   -0.015429
    57  H    0.055980
    58  H    0.065928
    59  H    0.065890
    60  C    0.022260
    61  H    0.060778
    62  H    0.048262
    63  H    0.061877
    64  C   -0.192537
    65  C   -0.027452
    66  H    0.059185
    67  C   -0.045312
    68  H    0.066244
    69  C   -0.043579
    70  H    0.067958
    71  C   -0.041451
    72  H    0.062786
    73  C   -0.023106
    74  H    0.034980
    75  Cu   0.337308
    76  C    0.160735
    77  C   -0.135700
    78  C    0.330706
    79  C   -0.195951
    80  C    0.133628
    81  C    0.165538
    82  C   -0.131361
    83  C    0.330826
    84  C   -0.185760
    85  C    0.127159
    86  H    0.064468
    87  H    0.073849
    88  H    0.074256
    89  H    0.064972
    90  H    0.069846
    91  H    0.069098
    92  N   -0.328499
    93  N   -0.322499
    94  O   -0.372365
    95  O   -0.372187
    96  C    0.093341
    97  H    0.088968
    98  H    0.078841
    99  H    0.078571
   100  C    0.093454
   101  H    0.088783
   102  H    0.078833
   103  H    0.078719
 Sum of Mulliken charges =   1.00000
 Mulliken charges with hydrogens summed into heavy atoms:
               1
     1  P    0.457397
     2  P    0.449350
     3  O   -0.401486
     4  C   -0.135538
     5  C    0.003607
     7  C    0.010065
     9  C    0.016462
    11  C    0.024192
    13  C    0.002584
    15  C   -0.201863
    16  C   -0.001075
    18  C    0.025599
    20  C   -0.037600
    22  C   -0.002426
    23  C   -0.212153
    24  C   -0.006765
    25  C   -0.039662
    27  C    0.025553
    29  C   -0.007739
    31  C   -0.216263
    32  C   -0.172772
    33  C    0.017858
    35  C    0.014116
    37  C    0.020422
    39  C    0.022447
    41  C    0.016403
    43  C   -0.172865
    44  C    0.023849
    46  C    0.028045
    48  C    0.015109
    50  C    0.019748
    52  C    0.018736
    54  C    0.248027
    55  C    0.227797
    56  C    0.172369
    60  C    0.193177
    64  C   -0.192537
    65  C    0.031733
    67  C    0.020932
    69  C    0.024379
    71  C    0.021335
    73  C    0.011873
    75  Cu   0.337308
    76  C    0.160735
    77  C   -0.071232
    78  C    0.330706
    79  C   -0.122102
    80  C    0.207884
    81  C    0.165538
    82  C   -0.066389
    83  C    0.330826
    84  C   -0.115914
    85  C    0.196257
    92  N   -0.328499
    93  N   -0.322499
    94  O   -0.372365
    95  O   -0.372187
    96  C    0.339721
   100  C    0.339790
 Electronic spatial extent (au):  <R**2>=          34771.6588
 Charge=              1.0000 electrons
 Dipole moment (field-independent basis, Debye):
    X=             -5.4824    Y=              2.6332    Z=             -1.1090  Tot=              6.1823
 Quadrupole moment (field-independent basis, Debye-Ang):
   XX=           -268.8440   YY=           -283.9086   ZZ=           -299.8384
   XY=              7.5509   XZ=            -13.9684   YZ=            -24.7414
 Traceless Quadrupole moment (field-independent basis, Debye-Ang):
   XX=             15.3530   YY=              0.2884   ZZ=            -15.6414
   XY=              7.5509   XZ=            -13.9684   YZ=            -24.7414
 Octapole moment (field-independent basis, Debye-Ang**2):
  XXX=           -336.9637  YYY=            145.9880  ZZZ=              6.0890  XYY=            -93.8196
  XXY=           -109.7987  XXZ=             44.5127  XZZ=            -15.8719  YZZ=             77.5468
  YYZ=            -56.5584  XYZ=             18.0153
 Hexadecapole moment (field-independent basis, Debye-Ang**3):
 XXXX=         -15793.2687 YYYY=         -13390.6405 ZZZZ=         -12006.3184 XXXY=            679.7933
 XXXZ=           -833.6678 YYYX=           -284.2226 YYYZ=           -581.6982 ZZZX=           -103.1710
 ZZZY=           -241.8883 XXYY=          -4722.5795 XXZZ=          -4683.8737 YYZZ=          -3841.9364
 XXYZ=           -524.4792 YYXZ=            284.9091 ZZXY=            -61.0092
 N-N= 1.051665114468D+04 E-N=-3.187984647573D+04  KE= 4.597591552130D+03
 Leave Link  601 at Thu Nov 23 01:19:09 2023, MaxMem=  2831155200 cpu:               3.2 elap:               0.5
 (Enter /opt/software/packages/g16/l9999.exe)
 Unable to Open any file for archive entry.
 1\1\GINC-X1000C5S0B1N1\SP\RM06L TD-FC\Gen\C51H44Cu1N2O3P2(1+)\PNG4RJV\
 23-Nov-2023\0\\#p m06l chkbasis geom=allcheck Guess=Read int=ultrafine
  scrf=(SMD,solvent=Dichloromethane) td=(NStates=60)\\Title\\1,1\P,0,1.
 1229793228,0.780455202,1.6822659026\P,0,0.0051316875,-1.8835606441,-0.
 8138474552\O,0,2.2258180644,-0.1007518107,-0.8634003921\C,0,2.21254411
 71,-0.3986731057,2.5537289798\C,0,1.7391825374,-0.968097715,3.74678263
 66\H,0,0.7668293629,-0.6634420765,4.1483396343\C,0,2.5069442384,-1.900
 1158135,4.438637942\H,0,2.134595348,-2.3205066034,5.3758366798\C,0,3.7
 486737692,-2.2933499755,3.9377547316\H,0,4.3517706604,-3.0256333484,4.
 479281044\C,0,4.2167208992,-1.7470327497,2.744542129\H,0,5.1870266161,
 -2.0519378855,2.3459634133\C,0,3.4570585599,-0.801870394,2.0555171411\
 H,0,3.8475446999,-0.3710349261,1.1301188712\C,0,2.2297805619,1.7580252
 687,0.5934968594\C,0,2.5805879535,3.0946224481,0.823994198\H,0,2.28557
 44484,3.5806461122,1.7568672877\C,0,3.2798049364,3.8165656948,-0.14129
 69541\H,0,3.5427582041,4.8585977094,0.0502381482\C,0,3.6478070095,3.22
 10419395,-1.3483544466\H,0,4.1964292513,3.8061756991,-2.0891380491\C,0
 ,3.3305278817,1.8865091835,-1.6137609224\C,0,3.7402766885,1.1138145026
 ,-2.8635705189\C,0,2.5773581781,0.1939695637,-3.2175701512\C,0,2.16893
 45529,-0.14347905,-4.511453961\H,0,2.6661734456,0.3069889091,-5.372828
 9377\C,0,1.1390432243,-1.0618429677,-4.7208709982\H,0,0.8445633618,-1.
 3192414092,-5.7400008999\C,0,0.4844517565,-1.6564541186,-3.64285101\H,
 0,-0.3260817676,-2.3688764261,-3.8176972203\C,0,0.8520878479,-1.329648
 8259,-2.3328982251\C,0,-1.372419821,-2.9082360191,-1.4272107145\C,0,-2
 .5281021216,-2.2325606379,-1.8505802245\H,0,-2.5514284674,-1.137345381
 7,-1.8176564524\C,0,-3.6315005129,-2.9418576665,-2.3157999222\H,0,-4.5
 225716868,-2.4051177349,-2.6503409743\C,0,-3.5990270224,-4.3373707034,
 -2.3466041163\H,0,-4.4658120768,-4.8968658261,-2.7050867459\C,0,-2.459
 028579,-5.0162880734,-1.9185626452\H,0,-2.4316683301,-6.1078832448,-1.
 9426907761\C,0,-1.347414725,-4.3077669191,-1.4616615347\H,0,-0.4562287
 647,-4.847869526,-1.1297678711\C,0,1.1730635293,-3.0570365311,-0.05144
 13376\C,0,0.9722749182,-3.4004846348,1.2928196424\H,0,0.1530385193,-2.
 9375670756,1.8536244089\C,0,1.8126768226,-4.3152716581,1.9209573936\H,
 0,1.6437851776,-4.578517373,2.9674679175\C,0,2.8795140743,-4.877388618
 7,1.2194459947\H,0,3.5451366452,-5.5882173252,1.7143955194\C,0,3.10014
 8586,-4.5245020848,-0.1112056672\H,0,3.9366140618,-4.9606583069,-0.661
 8828223\C,0,2.2489662348,-3.6219507112,-0.7479373791\H,0,2.4208757518,
 -3.3601086727,-1.7961974667\C,0,1.8971779832,-0.4133890985,-2.16112793
 92\C,0,2.6189758599,1.1935572359,-0.629357867\C,0,4.1138142232,2.03757
 63509,-4.013630965\H,0,3.280350409,2.6911030551,-4.3091253242\H,0,4.42
 36289315,1.4623167521,-4.8957713024\H,0,4.9684413166,2.6734592595,-3.7
 480584576\C,0,4.9532845583,0.2323692542,-2.5041689677\H,0,5.2627663546
 ,-0.3701001385,-3.3701371335\H,0,4.7248175766,-0.4593652037,-1.6803791
 156\H,0,5.8065037683,0.8536226397,-2.1962112588\C,0,0.6508631588,1.973
 8599913,2.9791922104\C,0,1.5082493566,2.3370834953,4.0279953907\H,0,2.
 4984018425,1.8782402801,4.1077548637\C,0,1.1021909362,3.280476605,4.96
 87102404\H,0,1.7737838697,3.5580852464,5.784053055\C,0,-0.1587215738,3
 .8716715791,4.8698794134\H,0,-0.4740810342,4.610214725,5.6101102087\C,
 0,-1.0174362521,3.5145383158,3.8313823951\H,0,-2.0072072389,3.97027751
 79,3.7570737184\C,0,-0.61645318,2.5649599731,2.8926200628\H,0,-1.28957
 83264,2.2639791782,2.0825320173\Cu,0,-0.5757878794,-0.038497671,0.4101
 702066\C,0,-3.41656384,0.689506337,0.2691347244\C,0,-4.8006031155,0.57
 69044415,0.3330806233\C,0,-5.3795218069,-0.4331856336,1.1143781857\C,0
 ,-4.5270777733,-1.303018527,1.8103873376\C,0,-3.1576736431,-1.11494398
 47,1.6835448423\C,0,-2.7394167693,1.7135010083,-0.5581423777\C,0,-3.41
 7371532,2.7867162597,-1.1243146708\C,0,-2.7148604189,3.7179700222,-1.9
 024299356\C,0,-1.3372501021,3.5257258763,-2.0833322484\C,0,-0.74463596
 98,2.4265444768,-1.4758977035\H,0,-5.4611674161,1.2416547876,-0.223148
 7746\H,0,-4.9067890763,-2.1122178946,2.4330445894\H,0,-2.4676608319,-1
 .7823462287,2.2099245415\H,0,-4.4851607825,2.9421239004,-0.9717872893\
 H,0,-0.7285272074,4.2076463302,-2.6761192997\H,0,0.3308023568,2.254237
 4321,-1.5971990853\N,0,-2.5985630639,-0.1542989032,0.9432223414\N,0,-1
 .4070601521,1.5380084734,-0.7302451704\O,0,-3.4205713928,4.7275645395,
 -2.4122762989\O,0,-6.7111282466,-0.4930755607,1.1287994318\C,0,-2.7519
 306505,5.6929605911,-3.2014043538\H,0,-3.5082520473,6.4196499194,-3.51
 01217103\H,0,-1.97002052,6.210340164,-2.6252496183\H,0,-2.303730117,5.
 2379656191,-4.0975498736\C,0,-7.3365596832,-1.5027515225,1.8982001226\
 H,0,-8.4139501777,-1.3698033333,1.7681015198\H,0,-7.0527586869,-2.5068
 11453,1.5484027271\H,0,-7.088717625,-1.404980142,2.9658582885\\Version
 =AS64L-G16RevC.02\State=1-A\HF=-4625.9472555\RMSD=6.431e-09\PG=C01 [X(
 C51H44Cu1N2O3P2)]\\@
 The archive entry for this job was punched.


 Everywhere is walking distance if you have the time.
                                    -- Steven Wright
 Job cpu time:       1 days 19 hours 40 minutes 10.7 seconds.
 Elapsed time:       0 days  3 hours 42 minutes 46.1 seconds.
 File lengths (MBytes):  RWF=  22846 Int=      0 D2E=      0 Chk=   2338 Scr=      1
 Normal termination of Gaussian 16 at Thu Nov 23 01:19:12 2023.
