
                                 *****************
                                 * O   R   C   A *
                                 *****************

                                            #,                                       
                                            ###                                      
                                            ####                                     
                                            #####                                    
                                            ######                                   
                                           ########,                                 
                                     ,,################,,,,,                         
                               ,,#################################,,                 
                          ,,##########################################,,             
                       ,#########################################, ''#####,          
                    ,#############################################,,   '####,        
                  ,##################################################,,,,####,       
                ,###########''''           ''''###############################       
              ,#####''   ,,,,##########,,,,          '''####'''          '####       
            ,##' ,,,,###########################,,,                        '##       
           ' ,,###''''                  '''############,,,                           
         ,,##''                                '''############,,,,        ,,,,,,###''
      ,#''                                            '''#######################'''  
     '                                                          ''''####''''         
             ,#######,   #######,   ,#######,      ##                                
            ,#'     '#,  ##    ##  ,#'     '#,    #''#        ######   ,####,        
            ##       ##  ##   ,#'  ##            #'  '#       #        #'  '#        
            ##       ##  #######   ##           ,######,      #####,   #    #        
            '#,     ,#'  ##    ##  '#,     ,#' ,#      #,         ##   #,  ,#        
             '#######'   ##     ##  '#######'  #'      '#     #####' # '####'        



                  #######################################################
                  #                        -***-                        #
                  #          Department of theory and spectroscopy      #
                  #    Directorship and core code : Frank Neese         #
                  #        Max Planck Institute fuer Kohlenforschung    #
                  #                Kaiser Wilhelm Platz 1               #
                  #                 D-45470 Muelheim/Ruhr               #
                  #                      Germany                        #
                  #                                                     #
                  #                  All rights reserved                #
                  #                        -***-                        #
                  #######################################################


                         Program Version 5.0.4 -  RELEASE  -


 With contributions from (in alphabetic order):
   Daniel Aravena         : Magnetic Suceptibility
   Michael Atanasov       : Ab Initio Ligand Field Theory (pilot matlab implementation)
   Alexander A. Auer      : GIAO ZORA, VPT2 properties, NMR spectrum
   Ute Becker             : Parallelization
   Giovanni Bistoni       : ED, misc. LED, open-shell LED, HFLD
   Martin Brehm           : Molecular dynamics
   Dmytro Bykov           : SCF Hessian
   Vijay G. Chilkuri      : MRCI spin determinant printing, contributions to CSF-ICE
   Dipayan Datta          : RHF DLPNO-CCSD density
   Achintya Kumar Dutta   : EOM-CC, STEOM-CC
   Dmitry Ganyushin       : Spin-Orbit,Spin-Spin,Magnetic field MRCI
   Miquel Garcia          : C-PCM and meta-GGA Hessian, CC/C-PCM, Gaussian charge scheme
   Yang Guo               : DLPNO-NEVPT2, F12-NEVPT2, CIM, IAO-localization
   Andreas Hansen         : Spin unrestricted coupled pair/coupled cluster methods
   Benjamin Helmich-Paris : MC-RPA, TRAH-SCF, COSX integrals
   Lee Huntington         : MR-EOM, pCC
   Robert Izsak           : Overlap fitted RIJCOSX, COSX-SCS-MP3, EOM
   Marcus Kettner         : VPT2
   Christian Kollmar      : KDIIS, OOCD, Brueckner-CCSD(T), CCSD density, CASPT2, CASPT2-K
   Simone Kossmann        : Meta GGA functionals, TD-DFT gradient, OOMP2, MP2 Hessian
   Martin Krupicka        : Initial AUTO-CI
   Lucas Lang             : DCDCAS
   Marvin Lechner         : AUTO-CI (C++ implementation), FIC-MRCC
   Dagmar Lenk            : GEPOL surface, SMD
   Dimitrios Liakos       : Extrapolation schemes; Compound Job, initial MDCI parallelization
   Dimitrios Manganas     : Further ROCIS development; embedding schemes
   Dimitrios Pantazis     : SARC Basis sets
   Anastasios Papadopoulos: AUTO-CI, single reference methods and gradients
   Taras Petrenko         : DFT Hessian,TD-DFT gradient, ASA, ECA, R-Raman, ABS, FL, XAS/XES, NRVS
   Peter Pinski           : DLPNO-MP2, DLPNO-MP2 Gradient
   Christoph Reimann      : Effective Core Potentials
   Marius Retegan         : Local ZFS, SOC
   Christoph Riplinger    : Optimizer, TS searches, QM/MM, DLPNO-CCSD(T), (RO)-DLPNO pert. Triples
   Tobias Risthaus        : Range-separated hybrids, TD-DFT gradient, RPA, STAB
   Michael Roemelt        : Original ROCIS implementation
   Masaaki Saitow         : Open-shell DLPNO-CCSD energy and density
   Barbara Sandhoefer     : DKH picture change effects
   Avijit Sen             : IP-ROCIS
   Kantharuban Sivalingam : CASSCF convergence, NEVPT2, FIC-MRCI
   Bernardo de Souza      : ESD, SOC TD-DFT
   Georgi Stoychev        : AutoAux, RI-MP2 NMR, DLPNO-MP2 response
   Willem Van den Heuvel  : Paramagnetic NMR
   Boris Wezisla          : Elementary symmetry handling
   Frank Wennmohs         : Technical directorship


 We gratefully acknowledge several colleagues who have allowed us to
 interface, adapt or use parts of their codes:
   Stefan Grimme, W. Hujo, H. Kruse, P. Pracht,  : VdW corrections, initial TS optimization,
                  C. Bannwarth, S. Ehlert          DFT functionals, gCP, sTDA/sTD-DF
   Ed Valeev, F. Pavosevic, A. Kumar             : LibInt (2-el integral package), F12 methods
   Garnet Chan, S. Sharma, J. Yang, R. Olivares  : DMRG
   Ulf Ekstrom                                   : XCFun DFT Library
   Mihaly Kallay                                 : mrcc  (arbitrary order and MRCC methods)
   Jiri Pittner, Ondrej Demel                    : Mk-CCSD
   Frank Weinhold                                : gennbo (NPA and NBO analysis)
   Christopher J. Cramer and Donald G. Truhlar   : smd solvation model
   Lars Goerigk                                  : TD-DFT with DH, B97 family of functionals
   V. Asgeirsson, H. Jonsson                     : NEB implementation
   FAccTs GmbH                                   : IRC, NEB, NEB-TS, DLPNO-Multilevel, CI-OPT
                                                   MM, QMMM, 2- and 3-layer-ONIOM, Crystal-QMMM,
                                                   LR-CPCM, SF, NACMEs, symmetry and pop. for TD-DFT,
                                                   nearIR, NL-DFT gradient (VV10), updates on ESD,
                                                   ML-optimized integration grids
   S Lehtola, MJT Oliveira, MAL Marques          : LibXC Library
   Liviu Ungur et al                             : ANISO software


 Your calculation uses the libint2 library for the computation of 2-el integrals
 For citations please refer to: http://libint.valeyev.net

 Your ORCA version has been built with support for libXC version: 5.1.0
 For citations please refer to: https://tddft.org/programs/libxc/

 This ORCA versions uses:
   CBLAS   interface :  Fast vector & matrix operations
   LAPACKE interface :  Fast linear algebra routines
   SCALAPACK package :  Parallel linear algebra routines
   Shared memory     :  Shared parallel matrices
   BLAS/LAPACK       :  OpenBLAS 0.3.15  USE64BITINT DYNAMIC_ARCH NO_AFFINITY Zen SINGLE_THREADED
        Core in use  :  Zen
   Copyright (c) 2011-2014, The OpenBLAS Project


Your calculation utilizes the SMD solvation module
Please cite in your paper:
A.V. Marenich, C.J. Cramer, D.G. Truhlar J. Phys. Chem. B, 113, (2009), 6378 

================================================================================

----- Orbital basis set information -----
Your calculation utilizes the basis: def2-SVP
   F. Weigend and R. Ahlrichs, Phys. Chem. Chem. Phys. 7, 3297 (2005).

----- AuxJ basis set information -----
Your calculation utilizes the auxiliary basis: def2/J
   F. Weigend, Phys. Chem. Chem. Phys. 8, 1057 (2006).

----- AuxC basis set information -----
Your calculation utilizes the auxiliary basis: def2-SVP/C
  H-La, Hf-Rn : A. Hellweg, C. Hattig, S. Hofener and W. Klopper, Theor. Chem. Acc. 117, 587 (2007).
        Ce-Lu : J. Chmela and M. E. Harding, Mol. Phys. (2018).

================================================================================
                                        WARNINGS
                       Please study these warnings very carefully!
================================================================================

INFO   : Checking CIS options ...
  ===> : (D) CORRECTION FOUND - SETTING MODE=3
  ===> : JK MODE FOUND - ACTIVATING RI-MP2 CODE
  ===> : MP2 AND CIS FOUND - CHECKING
WARNING: CIS(D) and MP2 runs must have the same orbital window
  ===> : adjusting orbital windows

WARNING: No MP2 level density has been requested!
         To caclulate MP2 level properties use
         %mp2 Density relaxed end
         or
         %mp2 Density unrelaxed end
         Otherwise for double-hybrid DFT only the energy is correct!

WARNING: The frozen-core approximation is turned on by default for 
         the MP2 part of double-hybrid DFT.

WARNING:  You are using a Range-Separated Double Hybrid functional with Doubles Correction 
          Changing Mode to RPA_AOINTS 


WARNING: CIS/ROCIS methods need fully converged wavefunctions
  ===> : Setting SCFConvForced true
         You can overwrite this default with %scf ConvForced false 


INFO   : the flag for use of the SHARK integral package has been found!

================================================================================
                                       INPUT FILE
================================================================================
NAME = Cu50_XantPhos-dmbp_SOS-wPBEPP86_def2SVP.inp
|  1> %maxcore 8000
|  2> %pal
|  3>  nprocs 8
|  4> end
|  5> ! RI-SOS-wPBEPP86 def2-SVP def2/J def2-SVP/C RIJCOSX CPCM TIGHTSCF
|  6> 
|  7> %TDDFT 
|  8>     DCORR     1
|  9>     NROOTS    40
| 10>     doscs     TRUE
| 11>     TDA       FALSE
| 12> END
| 13> 
| 14> %CPCM
| 15>     SMD		TRUE
| 16>     SMDsolvent	"CH2Cl2"
| 17> END
| 18> 
| 19> * xyz 1 1
| 20> P                   1.07487500    0.85270200    1.68391100
| 21> P                   0.10875700   -1.86934500   -0.81293200
| 22> O                   2.22924000    0.03164000   -0.85901900
| 23> C                   2.22520100   -0.26498900    2.55824600
| 24> C                   1.78108400   -0.85877800    3.75066600
| 25> H                   0.79277400   -0.60730000    4.15008500
| 26> C                   2.59700600   -1.74731900    4.44460300
| 27> H                   2.24616600   -2.18691600    5.38128800
| 28> C                   3.85931600   -2.07263100    3.94645300
| 29> H                   4.50025600   -2.77076200    4.48961400
| 30> C                   4.29938400   -1.50220400    2.75387600
| 31> H                   5.28565700   -1.75404100    2.35743100
| 32> C                   3.49082900   -0.60009700    2.06277800
| 33> H                   3.85918600   -0.14907800    1.13792400
| 34> C                   2.12906900    1.88854900    0.59682100
| 35> C                   2.40615400    3.24236100    0.82726200
| 36> H                   2.08322100    3.71204100    1.75926000
| 37> C                   3.06702500    4.00083900   -0.13702700
| 38> H                   3.27249500    5.05572400    0.05444300
| 39> C                   3.46935800    3.42566600   -1.34299900
| 40> H                   3.98684300    4.03944500   -2.08300700
| 41> C                   3.22571100    2.07572400   -1.60828300
| 42> C                   3.67945600    1.32589500   -2.85682100
| 43> C                   2.56904100    0.34396900   -3.21264200
| 44> C                   2.18223400   -0.01580000   -4.50715500
| 45> H                   2.65598700    0.46066100   -5.36778200
| 46> C                   1.20427200   -0.98894200   -4.71812700
| 47> H                   0.92632200   -1.26245200   -5.73770200
| 48> C                   0.58080000   -1.61779500   -3.64109100
| 49> H                  -0.18940700   -2.37334800   -3.81716700
| 50> C                   0.92742600   -1.27086600   -2.33058600
| 51> C                  -1.20973700   -2.96774500   -1.42849000
| 52> C                  -2.39960500   -2.35615300   -1.85457800
| 53> H                  -2.48256000   -1.26381400   -1.82232700
| 54> C                  -3.46181800   -3.12465500   -2.32161900
| 55> H                  -4.38008800   -2.63735300   -2.65826600
| 56> C                  -3.35339300   -4.51634700   -2.35156100
| 57> H                  -4.18771400   -5.12234500   -2.71147300
| 58> C                  -2.17901900   -5.13202800   -1.92083100
| 59> H                  -2.09225200   -6.22052800   -1.94428000
| 60> C                  -1.10854400   -4.36385700   -1.46209100
| 61> H                  -0.18997000   -4.85451200   -1.12809000
| 62> C                   1.33725000   -2.97717700   -0.04749900
| 63> C                   1.15269500   -3.33042300    1.29655000
| 64> H                   0.30833700   -2.91251300    1.85543500
| 65> C                   2.04034200   -4.19783400    1.92690600
| 66> H                   1.88388300   -4.46939800    2.97322300
| 67> C                   3.13762000   -4.70138900    1.22787100
| 68> H                   3.83992100   -5.37471600    1.72457000
| 69> C                   3.34144900   -4.33763200   -0.10253400
| 70> H                   4.20153400   -4.72787900   -0.65127100
| 71> C                   2.44372200   -3.48302900   -0.74149800
| 72> H                   2.60327400   -3.21270300   -1.78955800
| 73> C                   1.92075600   -0.29901500   -2.15722900
| 74> C                   2.55090600    1.34553200   -0.62492300
| 75> C                   4.00452800    2.26808500   -4.00665200
| 76> H                   3.13734400    2.87515400   -4.30420200
| 77> H                   4.34699100    1.71013000   -4.88783700
| 78> H                   4.82274200    2.94965300   -3.73971800
| 79> C                   4.93789200    0.51192800   -2.49446700
| 80> H                   5.28147100   -0.07320700   -3.35946500
| 81> H                   4.74571800   -0.19083400   -1.67074600
| 82> H                   5.75541000    1.17883100   -2.18514300
| 83> C                   0.53586600    2.01924500    2.97919900
| 84> C                   1.37006800    2.42906900    4.02952400
| 85> H                   2.38355600    2.02482200    4.11154500
| 86> C                   0.91135200    3.34940100    4.96887800
| 87> H                   1.56517300    3.66351900    5.78541600
| 88> C                  -0.37965700    3.87106100    4.86716400
| 89> H                  -0.73625200    4.59169100    5.60633400
| 90> C                  -1.21553900    3.46725100    3.82713900
| 91> H                  -2.22848800    3.86842200    3.75057200
| 92> C                  -0.76155800    2.54046700    2.88973100
| 93> H                  -1.41564800    2.20293100    2.07845700
| 94> Cu                 -0.57420500   -0.05806300    0.40885600
| 95> C                  -3.45009100    0.51421500    0.26166900
| 96> C                  -4.82608100    0.32649600    0.32288400
| 97> C                  -5.35077600   -0.71324000    1.10358800
| 98> C                  -4.45369000   -1.53507700    1.80181400
| 99> C                  -3.09629200   -1.27282300    1.67763000
|100> C                  -2.82797500    1.57315800   -0.56482400
|101> C                  -3.56216300    2.60763100   -1.13297700
|102> C                  -2.90977500    3.57537400   -1.91020400
|103> C                  -1.52337800    3.45829500   -2.08821500
|104> C                  -0.87307500    2.39327000   -1.47895700
|105> H                  -5.52069800    0.95406000   -0.23505700
|106> H                  -4.79008100   -2.36345300    2.42416600
|107> H                  -2.37206400   -1.90144600    2.20578300
|108> H                  -4.63713700    2.70477500   -0.98269500
|109> H                  -0.95145100    4.17205600   -2.68016100
|110> H                   0.21039200    2.27968300   -1.59798800
|111> N                  -2.58876900   -0.28351800    0.93788900
|112> N                  -1.48769400    1.47034800   -0.73413600
|113> O                  -3.66833200    4.54483700   -2.42205100
|114> O                  -6.67717800   -0.84549500    1.11535500
|115> C                  -3.05160000    5.54482300   -3.21037900
|116> H                  -3.84570900    6.22913800   -3.52103800
|117> H                  -2.30018200    6.10425000   -2.63294200
|118> H                  -2.57747100    5.11447900   -4.10535800
|119> C                  -7.24831500   -1.88735300    1.88406800
|120> H                  -8.33107500   -1.81328900    1.75171800
|121> H                  -6.90958400   -2.87464400    1.53541800
|122> H                  -7.00834700   -1.77574900    2.95216800
|123> *
|124> 
|125>                          ****END OF INPUT****
================================================================================

                       ****************************
                       * Single Point Calculation *
                       ****************************

---------------------------------
CARTESIAN COORDINATES (ANGSTROEM)
---------------------------------
  P      1.074875    0.852702    1.683911
  P      0.108757   -1.869345   -0.812932
  O      2.229240    0.031640   -0.859019
  C      2.225201   -0.264989    2.558246
  C      1.781084   -0.858778    3.750666
  H      0.792774   -0.607300    4.150085
  C      2.597006   -1.747319    4.444603
  H      2.246166   -2.186916    5.381288
  C      3.859316   -2.072631    3.946453
  H      4.500256   -2.770762    4.489614
  C      4.299384   -1.502204    2.753876
  H      5.285657   -1.754041    2.357431
  C      3.490829   -0.600097    2.062778
  H      3.859186   -0.149078    1.137924
  C      2.129069    1.888549    0.596821
  C      2.406154    3.242361    0.827262
  H      2.083221    3.712041    1.759260
  C      3.067025    4.000839   -0.137027
  H      3.272495    5.055724    0.054443
  C      3.469358    3.425666   -1.342999
  H      3.986843    4.039445   -2.083007
  C      3.225711    2.075724   -1.608283
  C      3.679456    1.325895   -2.856821
  C      2.569041    0.343969   -3.212642
  C      2.182234   -0.015800   -4.507155
  H      2.655987    0.460661   -5.367782
  C      1.204272   -0.988942   -4.718127
  H      0.926322   -1.262452   -5.737702
  C      0.580800   -1.617795   -3.641091
  H     -0.189407   -2.373348   -3.817167
  C      0.927426   -1.270866   -2.330586
  C     -1.209737   -2.967745   -1.428490
  C     -2.399605   -2.356153   -1.854578
  H     -2.482560   -1.263814   -1.822327
  C     -3.461818   -3.124655   -2.321619
  H     -4.380088   -2.637353   -2.658266
  C     -3.353393   -4.516347   -2.351561
  H     -4.187714   -5.122345   -2.711473
  C     -2.179019   -5.132028   -1.920831
  H     -2.092252   -6.220528   -1.944280
  C     -1.108544   -4.363857   -1.462091
  H     -0.189970   -4.854512   -1.128090
  C      1.337250   -2.977177   -0.047499
  C      1.152695   -3.330423    1.296550
  H      0.308337   -2.912513    1.855435
  C      2.040342   -4.197834    1.926906
  H      1.883883   -4.469398    2.973223
  C      3.137620   -4.701389    1.227871
  H      3.839921   -5.374716    1.724570
  C      3.341449   -4.337632   -0.102534
  H      4.201534   -4.727879   -0.651271
  C      2.443722   -3.483029   -0.741498
  H      2.603274   -3.212703   -1.789558
  C      1.920756   -0.299015   -2.157229
  C      2.550906    1.345532   -0.624923
  C      4.004528    2.268085   -4.006652
  H      3.137344    2.875154   -4.304202
  H      4.346991    1.710130   -4.887837
  H      4.822742    2.949653   -3.739718
  C      4.937892    0.511928   -2.494467
  H      5.281471   -0.073207   -3.359465
  H      4.745718   -0.190834   -1.670746
  H      5.755410    1.178831   -2.185143
  C      0.535866    2.019245    2.979199
  C      1.370068    2.429069    4.029524
  H      2.383556    2.024822    4.111545
  C      0.911352    3.349401    4.968878
  H      1.565173    3.663519    5.785416
  C     -0.379657    3.871061    4.867164
  H     -0.736252    4.591691    5.606334
  C     -1.215539    3.467251    3.827139
  H     -2.228488    3.868422    3.750572
  C     -0.761558    2.540467    2.889731
  H     -1.415648    2.202931    2.078457
  Cu    -0.574205   -0.058063    0.408856
  C     -3.450091    0.514215    0.261669
  C     -4.826081    0.326496    0.322884
  C     -5.350776   -0.713240    1.103588
  C     -4.453690   -1.535077    1.801814
  C     -3.096292   -1.272823    1.677630
  C     -2.827975    1.573158   -0.564824
  C     -3.562163    2.607631   -1.132977
  C     -2.909775    3.575374   -1.910204
  C     -1.523378    3.458295   -2.088215
  C     -0.873075    2.393270   -1.478957
  H     -5.520698    0.954060   -0.235057
  H     -4.790081   -2.363453    2.424166
  H     -2.372064   -1.901446    2.205783
  H     -4.637137    2.704775   -0.982695
  H     -0.951451    4.172056   -2.680161
  H      0.210392    2.279683   -1.597988
  N     -2.588769   -0.283518    0.937889
  N     -1.487694    1.470348   -0.734136
  O     -3.668332    4.544837   -2.422051
  O     -6.677178   -0.845495    1.115355
  C     -3.051600    5.544823   -3.210379
  H     -3.845709    6.229138   -3.521038
  H     -2.300182    6.104250   -2.632942
  H     -2.577471    5.114479   -4.105358
  C     -7.248315   -1.887353    1.884068
  H     -8.331075   -1.813289    1.751718
  H     -6.909584   -2.874644    1.535418
  H     -7.008347   -1.775749    2.952168

----------------------------
CARTESIAN COORDINATES (A.U.)
----------------------------
  NO LB      ZA    FRAG     MASS         X           Y           Z
   0 P    15.0000    0    30.974    2.031219    1.611373    3.182131
   1 P    15.0000    0    30.974    0.205521   -3.532550   -1.536219
   2 O     8.0000    0    15.999    4.212653    0.059791   -1.623311
   3 C     6.0000    0    12.011    4.205020   -0.500757    4.834384
   4 C     6.0000    0    12.011    3.365761   -1.622855    7.087732
   5 H     1.0000    0     1.008    1.498126   -1.147631    7.842524
   6 C     6.0000    0    12.011    4.907630   -3.301954    8.399082
   7 H     1.0000    0     1.008    4.244639   -4.132672   10.169161
   8 C     6.0000    0    12.011    7.293050   -3.916705    7.457715
   9 H     1.0000    0     1.008    8.504251   -5.235981    8.484141
  10 C     6.0000    0    12.011    8.124658   -2.838754    5.204071
  11 H     1.0000    0     1.008    9.988444   -3.314657    4.454899
  12 C     6.0000    0    12.011    6.596711   -1.134019    3.898085
  13 H     1.0000    0     1.008    7.292805   -0.281717    2.150365
  14 C     6.0000    0    12.011    4.023357    3.568840    1.127828
  15 C     6.0000    0    12.011    4.546972    6.127174    1.563299
  16 H     1.0000    0     1.008    3.936717    7.014741    3.324520
  17 C     6.0000    0    12.011    5.795837    7.560490   -0.258944
  18 H     1.0000    0     1.008    6.184119    9.553934    0.102882
  19 C     6.0000    0    12.011    6.556136    6.473571   -2.537900
  20 H     1.0000    0     1.008    7.534041    7.633445   -3.936313
  21 C     6.0000    0    12.011    6.095710    3.922550   -3.039214
  22 C     6.0000    0    12.011    6.953164    2.505578   -5.398609
  23 C     6.0000    0    12.011    4.854784    0.650007   -6.071014
  24 C     6.0000    0    12.011    4.123825   -0.029858   -8.517289
  25 H     1.0000    0     1.008    5.019088    0.870523  -10.143638
  26 C     6.0000    0    12.011    2.275744   -1.868830   -8.915968
  27 H     1.0000    0     1.008    1.750495   -2.385689  -10.842685
  28 C     6.0000    0    12.011    1.097553   -3.057189   -6.880665
  29 H     1.0000    0     1.008   -0.357927   -4.484978   -7.213400
  30 C     6.0000    0    12.011    1.752581   -2.401589   -4.404169
  31 C     6.0000    0    12.011   -2.286072   -5.608225   -2.699455
  32 C     6.0000    0    12.011   -4.534596   -4.452484   -3.504645
  33 H     1.0000    0     1.008   -4.691359   -2.388262   -3.443699
  34 C     6.0000    0    12.011   -6.541888   -5.904742   -4.387224
  35 H     1.0000    0     1.008   -8.277167   -4.983875   -5.023395
  36 C     6.0000    0    12.011   -6.336994   -8.534659   -4.443806
  37 H     1.0000    0     1.008   -7.913633   -9.679829   -5.123941
  38 C     6.0000    0    12.011   -4.117749   -9.698127   -3.629845
  39 H     1.0000    0     1.008   -3.953783  -11.755094   -3.674157
  40 C     6.0000    0    12.011   -2.094845   -8.246495   -2.762952
  41 H     1.0000    0     1.008   -0.358991   -9.173698   -2.131781
  42 C     6.0000    0    12.011    2.527036   -5.626049   -0.089760
  43 C     6.0000    0    12.011    2.178278   -6.293587    2.450124
  44 H     1.0000    0     1.008    0.582672   -5.503852    3.506264
  45 C     6.0000    0    12.011    3.855688   -7.932757    3.641325
  46 H     1.0000    0     1.008    3.560023   -8.445938    5.618577
  47 C     6.0000    0    12.011    5.929243   -8.884338    2.320340
  48 H     1.0000    0     1.008    7.256399  -10.156741    3.258965
  49 C     6.0000    0    12.011    6.314424   -8.196937   -0.193761
  50 H     1.0000    0     1.008    7.939749   -8.934397   -1.230724
  51 C     6.0000    0    12.011    4.617965   -6.581971   -1.401228
  52 H     1.0000    0     1.008    4.919475   -6.071129   -3.381775
  53 C     6.0000    0    12.011    3.629703   -0.565056   -4.076572
  54 C     6.0000    0    12.011    4.820514    2.542687   -1.180933
  55 C     6.0000    0    12.011    7.567461    4.286059   -7.571475
  56 H     1.0000    0     1.008    5.928721    5.433254   -8.133763
  57 H     1.0000    0     1.008    8.214622    3.231677   -9.236673
  58 H     1.0000    0     1.008    9.113662    5.574036   -7.067043
  59 C     6.0000    0    12.011    9.331264    0.967404   -4.713859
  60 H     1.0000    0     1.008    9.980534   -0.138341   -6.348469
  61 H     1.0000    0     1.008    8.968107   -0.360624   -3.157252
  62 H     1.0000    0     1.008   10.876149    2.227668   -4.129322
  63 C     6.0000    0    12.011    1.012640    3.815820    5.629870
  64 C     6.0000    0    12.011    2.589053    4.590275    7.614697
  65 H     1.0000    0     1.008    4.504268    3.826359    7.769694
  66 C     6.0000    0    12.011    1.722206    6.329451    9.389819
  67 H     1.0000    0     1.008    2.957748    6.923048   10.932852
  68 C     6.0000    0    12.011   -0.717448    7.315245    9.197607
  69 H     1.0000    0     1.008   -1.391315    8.677038   10.594436
  70 C     6.0000    0    12.011   -2.297036    6.552155    7.232245
  71 H     1.0000    0     1.008   -4.211232    7.310258    7.087554
  72 C     6.0000    0    12.011   -1.439136    4.800787    5.460800
  73 H     1.0000    0     1.008   -2.675187    4.162936    3.927715
  74 Cu   29.0000    0    63.550   -1.085090   -0.109723    0.772626
  75 C     6.0000    0    12.011   -6.519727    0.971726    0.494483
  76 C     6.0000    0    12.011   -9.119971    0.616988    0.610162
  77 C     6.0000    0    12.011  -10.111501   -1.347828    2.085479
  78 C     6.0000    0    12.011   -8.416254   -2.900875    3.404935
  79 C     6.0000    0    12.011   -5.851144   -2.405287    3.170261
  80 C     6.0000    0    12.011   -5.344098    2.972838   -1.067363
  81 C     6.0000    0    12.011   -6.731513    4.927708   -2.141016
  82 C     6.0000    0    12.011   -5.498678    6.756478   -3.609762
  83 C     6.0000    0    12.011   -2.878767    6.535230   -3.946154
  84 C     6.0000    0    12.011   -1.649873    4.522625   -2.794824
  85 H     1.0000    0     1.008  -10.432607    1.802912   -0.444193
  86 H     1.0000    0     1.008   -9.051941   -4.466279    4.581010
  87 H     1.0000    0     1.008   -4.482551   -3.593212    4.168326
  88 H     1.0000    0     1.008   -8.762919    5.111284   -1.857024
  89 H     1.0000    0     1.008   -1.797982    7.884043   -5.064770
  90 H     1.0000    0     1.008    0.397583    4.307977   -3.019760
  91 N     7.0000    0    14.007   -4.892064   -0.535771    1.772353
  92 N     7.0000    0    14.007   -2.811334    2.778555   -1.387316
  93 O     8.0000    0    15.999   -6.932143    8.588497   -4.577013
  94 O     8.0000    0    15.999  -12.618038   -1.597754    2.107715
  95 C     6.0000    0    12.011   -5.766688   10.478197   -6.066737
  96 H     1.0000    0     1.008   -7.267337   11.771365   -6.653798
  97 H     1.0000    0     1.008   -4.346714   11.535361   -4.975539
  98 H     1.0000    0     1.008   -4.870714    9.664965   -7.758002
  99 C     6.0000    0    12.011  -13.697330   -3.566580    3.560373
 100 H     1.0000    0     1.008  -15.743450   -3.426620    3.310267
 101 H     1.0000    0     1.008  -13.057221   -5.432290    2.901520
 102 H     1.0000    0     1.008  -13.243856   -3.355679    5.578789

--------------------------------
INTERNAL COORDINATES (ANGSTROEM)
--------------------------------
 P      0   0   0     0.000000000000     0.00000000     0.00000000
 P      1   0   0     3.818003251280     0.00000000     0.00000000
 O      2   1   0     2.848212796664    49.18244212     0.00000000
 C      1   2   3     1.826730623267    92.07081909   272.20425359
 C      4   1   2     1.404169057703   117.77647012   259.77316707
 H      5   4   1     1.095232111538   119.86802111   357.08512506
 C      5   4   1     1.391683289665   120.53045804   178.28255041
 H      7   5   4     1.092571744662   119.74297779   178.81173732
 C      7   5   4     1.395495559271   120.07739130   358.94607192
 H      9   7   5     1.092343741082   120.14851348   180.06715746
 C      9   7   5     1.393300652365   119.72290844     0.12924893
 H     11   9   7     1.092394133600   120.09337029   180.11610082
 C     11   9   7     1.394695190025   120.38683082     0.57151410
 H     13  11   9     1.092913509444   119.39654338   178.94361748
 C      1   2   3     1.834684895328    99.23203499    18.27223807
 C     15   1   2     1.400958986926   124.17844532   157.87510224
 H     16  15   1     1.092476680251   119.82256349     7.26040098
 C     16  15   1     1.393518076900   120.39428420   188.59096575
 H     18  16  15     1.091632284712   119.59457860   179.73866857
 C     18  16  15     1.395372454795   120.69317568   359.67952978
 H     20  18  16     1.091845788621   119.38678159   180.07916319
 C     20  18  16     1.397169590504   120.80286124   359.64678942
 C     22  20  18     1.525442621573   125.34283477   183.21149132
 C     23  22  20     1.524404383929   106.91779472   216.74077399
 C     24  23  22     1.398147808988   125.68912534   144.45314515
 H     25  24  23     1.091849725310   119.83295323   356.68897704
 C     25  24  23     1.395680554565   120.87902800   176.04995411
 H     27  25  24     1.091602997076   119.62403306   180.71923710
 C     27  25  24     1.394338544145   120.73178406     0.56416468
 H     29  27  25     1.093198022517   120.15420287   179.53680124
 C     29  27  25     1.399261473043   120.05630664     0.35634012
 C      2   1   3     1.823134838513   146.44353323   201.07072529
 C     32   2   1     1.404058978687   116.93026622    56.07012067
 H     33  32   2     1.095959009246   119.29881196     1.26576258
 C     33  32   2     1.391768327364   120.53712728   180.86178737
 H     35  33  32     1.092709583884   119.90148935   180.49615357
 C     35  33  32     1.396230327293   119.88829640     0.84951535
 H     37  35  33     1.092182106972   120.05246242   179.60377185
 C     37  35  33     1.394182813887   119.93112310   359.63670029
 H     39  37  35     1.092204476227   120.02603453   180.04526574
 C     39  37  35     1.395150815670   120.31462005   359.85383056
 H     41  39  37     1.093653139941   119.85777818   180.13797129
 C      2   1   3     1.822738178884    89.32104810    83.81106294
 C     43   2   1     1.401895502148   117.84157267    62.48405569
 H     44  43   2     1.095418478705   119.63632602   357.95038245
 C     44  43   2     1.392001338457   120.47915638   178.50638443
 H     46  44  43     1.092247998060   119.82714214   180.27205714
 C     46  44  43     1.395075832539   119.97172882     1.25418350
 H     48  46  44     1.092385389929   120.02111826   179.42445200
 C     48  46  44     1.394217658874   119.93081827   359.83082841
 H     50  48  46     1.092314617408   120.08411719   179.80344108
 C     50  48  46     1.394465864564   120.20000388   359.30881972
 H     52  50  48     1.094057928347   119.76812050   180.80514101
 C      3   2   1     1.374716083917    71.80104267   206.80437889
 C      3   2   1     1.372800837863   144.14253635   316.84478828
 C     23  22  20     1.521678392383   112.18852549   340.16486221
 H     56  23  22     1.099580312263   112.20011987   299.88616457
 H     56  23  22     1.097762129343   111.00760010   178.90821035
 H     56  23  22     1.097844637814   111.09328861    61.03268821
 C     23  22  20     1.541915647661   108.05359827   100.68793689
 H     60  23  22     1.099386664222   110.55627400   178.10051888
 H     60  23  22     1.099691575289   111.76222709    58.15983351
 H     60  23  22     1.099443781514   110.65714686   297.92188207
 C      1   2   3     1.824588796380   147.70667631   152.07764726
 C     64   1   2     1.402508928102   122.87130476   150.30378845
 H     65  64   1     1.094212505683   119.94013288   358.31792485
 C     65  64   1     1.392773239331   120.15086279   178.33244135
 H     67  65  64     1.092193354406   119.80899544   179.90720202
 C     67  65  64     1.396130055359   120.15374228   359.82086891
 H     69  67  65     1.092172092587   119.94361614   179.92976157
 C     69  67  65     1.394063569085   120.03800207     0.26980209
 H     71  69  67     1.092184212178   120.13276895   179.52011339
 C     71  69  67     1.394188326404   119.92868751     0.08966382
 H     73  71  69     1.095413064771   120.55463971   178.93573054
 Cu     1   2   3     2.274801746230    33.33832676   127.25324924
 C     34  33  32     2.905261208363   131.01812321   269.13330624
 C     76  34  33     1.390084234601   106.17626379   289.44370126
 C     77  76  34     1.402089343921   119.67577399    85.34447339
 C     78  77  76     1.402746909831   118.18357507     0.00000000
 C     79  78  77     1.388066337311   118.04511500   359.88832842
 C     76  34  33     1.480364574608    84.10805698   167.27950038
 C     81  76  34     1.389951164064   122.58939008   118.00072544
 C     82  81  76     1.402219107744   119.63421349   180.26839617
 C     83  82  81     1.402673180028   118.20272503     0.12049923
 C     84  83  82     1.388656744123   118.11213025   359.69676181
 H     77  76  34     1.089783240037   122.04712342   266.50523326
 H     79  78  77     1.089351969825   122.16812138   180.22967575
 H     80  79  78     1.094814442507   119.68621572   180.38843132
 H     82  81  76     1.089766368051   122.07417458     1.23485774
 H     84  83  82     1.089474793360   122.21750521   179.90585504
 H     85  84  83     1.095888281541   119.65835428   180.24199546
 N     80  79  78     1.335485202327   124.13523613     0.22470075
 N     85  84  83     1.335776873316   123.99134811     0.11188851
 O     83  82  81     1.333137120489   116.74132271   180.30163186
 O     78  77  76     1.333031174773   116.79829017   180.34646877
 C     94  83  82     1.414846774603   118.67701210   179.85065976
 H     96  94  83     1.093345845278   106.50409692   180.11220178
 H     96  94  83     1.100464023956   111.38119460   298.93493170
 H     96  94  83     1.100446126541   111.38063537    61.30776589
 C     95  78  77     1.415127288021   118.64792727   179.62217951
 H    100  95  78     1.093330332606   106.50277964   180.03548644
 H    100  95  78     1.100472185719   111.35724275   298.87315820
 H    100  95  78     1.100398883969   111.38199902    61.23233392

---------------------------
INTERNAL COORDINATES (A.U.)
---------------------------
 P      0   0   0     0.000000000000     0.00000000     0.00000000
 P      1   0   0     7.214980523339     0.00000000     0.00000000
 O      2   1   0     5.382342156826    49.18244212     0.00000000
 C      1   2   3     3.452020598422    92.07081909   272.20425359
 C      4   1   2     2.653494964785   117.77647012   259.77316707
 H      5   4   1     2.069688743884   119.86802111   357.08512506
 C      5   4   1     2.629900282622   120.53045804   178.28255041
 H      7   5   4     2.064661379072   119.74297779   178.81173732
 C      7   5   4     2.637104428125   120.07739130   358.94607192
 H      9   7   5     2.064230514749   120.14851348   180.06715746
 C      9   7   5     2.632956655185   119.72290844     0.12924893
 H     11   9   7     2.064325742806   120.09337029   180.11610082
 C     11   9   7     2.635591949444   120.38683082     0.57151410
 H     13  11   9     2.065307220913   119.39654338   178.94361748
 C      1   2   3     3.467051994212    99.23203499    18.27223807
 C     15   1   2     2.647428810147   124.17844532   157.87510224
 H     16  15   1     2.064481733370   119.82256349     7.26040098
 C     16  15   1     2.633367528009   120.39428420   188.59096575
 H     18  16  15     2.062886057052   119.59457860   179.73866857
 C     18  16  15     2.636871794381   120.69317568   359.67952978
 H     20  18  16     2.063289520969   119.38678159   180.07916319
 C     20  18  16     2.640267888695   120.80286124   359.64678942
 C     22  20  18     2.882668787783   125.34283477   183.21149132
 C     23  22  20     2.880706802975   106.91779472   216.74077399
 C     24  23  22     2.642116453730   125.68912534   144.45314515
 H     25  24  23     2.063296960233   119.83295323   356.68897704
 C     25  24  23     2.637454018568   120.87902800   176.04995411
 H     27  25  24     2.062830711441   119.62403306   180.71923710
 C     27  25  24     2.634917986405   120.73178406     0.56416468
 H     29  27  25     2.065844872700   120.15420287   179.53680124
 C     29  27  25     2.644220973798   120.05630664     0.35634012
 C      2   1   3     3.445225550000   146.44353323   201.07072529
 C     32   2   1     2.653286945592   116.93026622    56.07012067
 H     33  32   2     2.071062381478   119.29881196     1.26576258
 C     33  32   2     2.630060980584   120.53712728   180.86178737
 H     35  33  32     2.064921857453   119.90148935   180.49615357
 C     35  33  32     2.638492938459   119.88829640     0.84951535
 H     37  35  33     2.063925070545   120.05246242   179.60377185
 C     37  35  33     2.634623698866   119.93112310   359.63670029
 H     39  37  35     2.063967342312   120.02603453   180.04526574
 C     39  37  35     2.636452957134   120.31462005   359.85383056
 H     41  39  37     2.066704919991   119.85777818   180.13797129
 C      2   1   3     3.444475971933    89.32104810    83.81106294
 C     43   2   1     2.649198567435   117.84157267    62.48405569
 H     44  43   2     2.070040926790   119.63632602   357.95038245
 C     44  43   2     2.630501307736   120.47915638   178.50638443
 H     46  44  43     2.064049586657   119.82714214   180.27205714
 C     46  44  43     2.636311259551   119.97172882     1.25418350
 H     48  46  44     2.064309219663   120.02111826   179.42445200
 C     48  46  44     2.634689546348   119.93081827   359.83082841
 H     50  48  46     2.064175478980   120.08411719   179.80344108
 C     50  48  46     2.635158587128   120.20000388   359.30881972
 H     52  50  48     2.067469859222   119.76812050   180.80514101
 C      3   2   1     2.597836910500    71.80104267   206.80437889
 C      3   2   1     2.594217619978   144.14253635   316.84478828
 C     23  22  20     2.875555425509   112.18852549   340.16486221
 H     56  23  22     2.077905652429   112.20011987   299.88616457
 H     56  23  22     2.074469784648   111.00760010   178.90821035
 H     56  23  22     2.074625703062   111.09328861    61.03268821
 C     23  22  20     2.913798295687   108.05359827   100.68793689
 H     60  23  22     2.077539710666   110.55627400   178.10051888
 H     60  23  22     2.078115909076   111.76222709    58.15983351
 H     60  23  22     2.077647646704   110.65714686   297.92188207
 C      1   2   3     3.447973132178   147.70667631   152.07764726
 C     64   1   2     2.650357774492   122.87130476   150.30378845
 H     65  64   1     2.067761968053   119.94013288   358.31792485
 C     65  64   1     2.631959988990   120.15086279   178.33244135
 H     67  65  64     2.063946325116   119.80899544   179.90720202
 C     67  65  64     2.638303451965   120.15374228   359.82086891
 H     69  67  65     2.063906146100   119.94361614   179.92976157
 C     69  67  65     2.634398358847   120.03800207     0.26980209
 H     71  69  67     2.063929048809   120.13276895   179.52011339
 C     71  69  67     2.634634116013   119.92868751     0.08966382
 H     73  71  69     2.070030695937   120.55463971   178.93573054
 Cu     1   2   3     4.298752309340    33.33832676   127.25324924
 C     34  33  32     5.490148031311   131.01812321   269.13330624
 C     76  34  33     2.626878506477   106.17626379   289.44370126
 C     77  76  34     2.649564875300   119.67577399    85.34447339
 C     78  77  76     2.650807494785   118.18357507     0.00000000
 C     79  78  77     2.623065233233   118.04511500   359.88832842
 C     76  34  33     2.797483624368    84.10805698   167.27950038
 C     81  76  34     2.626627039605   122.58939008   118.00072544
 C     82  81  76     2.649810093387   119.63421349   180.26839617
 C     83  82  81     2.650668165650   118.20272503     0.12049923
 C     84  83  82     2.624180940415   118.11213025   359.69676181
 H     77  76  34     2.059391869008   122.04712342   266.50523326
 H     79  78  77     2.058576886416   122.16812138   180.22967575
 H     80  79  78     2.068899463800   119.68621572   180.38843132
 H     82  81  76     2.059359985575   122.07417458     1.23485774
 H     84  83  82     2.058808989260   122.21750521   179.90585504
 H     85  84  83     2.070928725486   119.65835428   180.24199546
 N     80  79  78     2.523701288303   124.13523613     0.22470075
 N     85  84  83     2.524252466593   123.99134811     0.11188851
 O     83  82  81     2.519264056690   116.74132271   180.30163186
 O     78  77  76     2.519063848301   116.79829017   180.34646877
 C     94  83  82     2.673672925461   118.67701210   179.85065976
 H     96  94  83     2.066124217236   106.50409692   180.11220178
 H     96  94  83     2.079575625510   111.38119460   298.93493170
 H     96  94  83     2.079541804296   111.38063537    61.30776589
 C     95  78  77     2.674203018999   118.64792727   179.62217951
 H    100  95  78     2.066094902534   106.50277964   180.03548644
 H    100  95  78     2.079591049007   111.35724275   298.87315820
 H    100  95  78     2.079452528774   111.38199902    61.23233392

---------------------
BASIS SET INFORMATION
---------------------
There are 6 groups of distinct atoms

 Group   1 Type P   : 10s7p1d contracted to 4s3p1d pattern {5311/511/1}
 Group   2 Type O   : 7s4p1d contracted to 3s2p1d pattern {511/31/1}
 Group   3 Type C   : 7s4p1d contracted to 3s2p1d pattern {511/31/1}
 Group   4 Type H   : 4s1p contracted to 2s1p pattern {31/1}
 Group   5 Type Cu  : 14s9p5d1f contracted to 5s3p2d1f pattern {63311/531/41/1}
 Group   6 Type N   : 7s4p1d contracted to 3s2p1d pattern {511/31/1}

Atom   0P    basis set group =>   1
Atom   1P    basis set group =>   1
Atom   2O    basis set group =>   2
Atom   3C    basis set group =>   3
Atom   4C    basis set group =>   3
Atom   5H    basis set group =>   4
Atom   6C    basis set group =>   3
Atom   7H    basis set group =>   4
Atom   8C    basis set group =>   3
Atom   9H    basis set group =>   4
Atom  10C    basis set group =>   3
Atom  11H    basis set group =>   4
Atom  12C    basis set group =>   3
Atom  13H    basis set group =>   4
Atom  14C    basis set group =>   3
Atom  15C    basis set group =>   3
Atom  16H    basis set group =>   4
Atom  17C    basis set group =>   3
Atom  18H    basis set group =>   4
Atom  19C    basis set group =>   3
Atom  20H    basis set group =>   4
Atom  21C    basis set group =>   3
Atom  22C    basis set group =>   3
Atom  23C    basis set group =>   3
Atom  24C    basis set group =>   3
Atom  25H    basis set group =>   4
Atom  26C    basis set group =>   3
Atom  27H    basis set group =>   4
Atom  28C    basis set group =>   3
Atom  29H    basis set group =>   4
Atom  30C    basis set group =>   3
Atom  31C    basis set group =>   3
Atom  32C    basis set group =>   3
Atom  33H    basis set group =>   4
Atom  34C    basis set group =>   3
Atom  35H    basis set group =>   4
Atom  36C    basis set group =>   3
Atom  37H    basis set group =>   4
Atom  38C    basis set group =>   3
Atom  39H    basis set group =>   4
Atom  40C    basis set group =>   3
Atom  41H    basis set group =>   4
Atom  42C    basis set group =>   3
Atom  43C    basis set group =>   3
Atom  44H    basis set group =>   4
Atom  45C    basis set group =>   3
Atom  46H    basis set group =>   4
Atom  47C    basis set group =>   3
Atom  48H    basis set group =>   4
Atom  49C    basis set group =>   3
Atom  50H    basis set group =>   4
Atom  51C    basis set group =>   3
Atom  52H    basis set group =>   4
Atom  53C    basis set group =>   3
Atom  54C    basis set group =>   3
Atom  55C    basis set group =>   3
Atom  56H    basis set group =>   4
Atom  57H    basis set group =>   4
Atom  58H    basis set group =>   4
Atom  59C    basis set group =>   3
Atom  60H    basis set group =>   4
Atom  61H    basis set group =>   4
Atom  62H    basis set group =>   4
Atom  63C    basis set group =>   3
Atom  64C    basis set group =>   3
Atom  65H    basis set group =>   4
Atom  66C    basis set group =>   3
Atom  67H    basis set group =>   4
Atom  68C    basis set group =>   3
Atom  69H    basis set group =>   4
Atom  70C    basis set group =>   3
Atom  71H    basis set group =>   4
Atom  72C    basis set group =>   3
Atom  73H    basis set group =>   4
Atom  74Cu   basis set group =>   5
Atom  75C    basis set group =>   3
Atom  76C    basis set group =>   3
Atom  77C    basis set group =>   3
Atom  78C    basis set group =>   3
Atom  79C    basis set group =>   3
Atom  80C    basis set group =>   3
Atom  81C    basis set group =>   3
Atom  82C    basis set group =>   3
Atom  83C    basis set group =>   3
Atom  84C    basis set group =>   3
Atom  85H    basis set group =>   4
Atom  86H    basis set group =>   4
Atom  87H    basis set group =>   4
Atom  88H    basis set group =>   4
Atom  89H    basis set group =>   4
Atom  90H    basis set group =>   4
Atom  91N    basis set group =>   6
Atom  92N    basis set group =>   6
Atom  93O    basis set group =>   2
Atom  94O    basis set group =>   2
Atom  95C    basis set group =>   3
Atom  96H    basis set group =>   4
Atom  97H    basis set group =>   4
Atom  98H    basis set group =>   4
Atom  99C    basis set group =>   3
Atom 100H    basis set group =>   4
Atom 101H    basis set group =>   4
Atom 102H    basis set group =>   4
---------------------------------
AUXILIARY/J BASIS SET INFORMATION
---------------------------------
There are 6 groups of distinct atoms

 Group   1 Type P   : 14s5p5d2f1g contracted to 8s4p3d1f1g pattern {71111111/2111/311/2/1}
 Group   2 Type O   : 12s5p4d2f1g contracted to 6s4p3d1f1g pattern {711111/2111/211/2/1}
 Group   3 Type C   : 12s5p4d2f1g contracted to 6s4p3d1f1g pattern {711111/2111/211/2/1}
 Group   4 Type H   : 5s2p1d contracted to 3s1p1d pattern {311/2/1}
 Group   5 Type Cu  : 19s5p5d3f3g contracted to 8s5p4d3f3g pattern {121111111/11111/2111/111/111}
 Group   6 Type N   : 12s5p4d2f1g contracted to 6s4p3d1f1g pattern {711111/2111/211/2/1}

Atom   0P    basis set group =>   1
Atom   1P    basis set group =>   1
Atom   2O    basis set group =>   2
Atom   3C    basis set group =>   3
Atom   4C    basis set group =>   3
Atom   5H    basis set group =>   4
Atom   6C    basis set group =>   3
Atom   7H    basis set group =>   4
Atom   8C    basis set group =>   3
Atom   9H    basis set group =>   4
Atom  10C    basis set group =>   3
Atom  11H    basis set group =>   4
Atom  12C    basis set group =>   3
Atom  13H    basis set group =>   4
Atom  14C    basis set group =>   3
Atom  15C    basis set group =>   3
Atom  16H    basis set group =>   4
Atom  17C    basis set group =>   3
Atom  18H    basis set group =>   4
Atom  19C    basis set group =>   3
Atom  20H    basis set group =>   4
Atom  21C    basis set group =>   3
Atom  22C    basis set group =>   3
Atom  23C    basis set group =>   3
Atom  24C    basis set group =>   3
Atom  25H    basis set group =>   4
Atom  26C    basis set group =>   3
Atom  27H    basis set group =>   4
Atom  28C    basis set group =>   3
Atom  29H    basis set group =>   4
Atom  30C    basis set group =>   3
Atom  31C    basis set group =>   3
Atom  32C    basis set group =>   3
Atom  33H    basis set group =>   4
Atom  34C    basis set group =>   3
Atom  35H    basis set group =>   4
Atom  36C    basis set group =>   3
Atom  37H    basis set group =>   4
Atom  38C    basis set group =>   3
Atom  39H    basis set group =>   4
Atom  40C    basis set group =>   3
Atom  41H    basis set group =>   4
Atom  42C    basis set group =>   3
Atom  43C    basis set group =>   3
Atom  44H    basis set group =>   4
Atom  45C    basis set group =>   3
Atom  46H    basis set group =>   4
Atom  47C    basis set group =>   3
Atom  48H    basis set group =>   4
Atom  49C    basis set group =>   3
Atom  50H    basis set group =>   4
Atom  51C    basis set group =>   3
Atom  52H    basis set group =>   4
Atom  53C    basis set group =>   3
Atom  54C    basis set group =>   3
Atom  55C    basis set group =>   3
Atom  56H    basis set group =>   4
Atom  57H    basis set group =>   4
Atom  58H    basis set group =>   4
Atom  59C    basis set group =>   3
Atom  60H    basis set group =>   4
Atom  61H    basis set group =>   4
Atom  62H    basis set group =>   4
Atom  63C    basis set group =>   3
Atom  64C    basis set group =>   3
Atom  65H    basis set group =>   4
Atom  66C    basis set group =>   3
Atom  67H    basis set group =>   4
Atom  68C    basis set group =>   3
Atom  69H    basis set group =>   4
Atom  70C    basis set group =>   3
Atom  71H    basis set group =>   4
Atom  72C    basis set group =>   3
Atom  73H    basis set group =>   4
Atom  74Cu   basis set group =>   5
Atom  75C    basis set group =>   3
Atom  76C    basis set group =>   3
Atom  77C    basis set group =>   3
Atom  78C    basis set group =>   3
Atom  79C    basis set group =>   3
Atom  80C    basis set group =>   3
Atom  81C    basis set group =>   3
Atom  82C    basis set group =>   3
Atom  83C    basis set group =>   3
Atom  84C    basis set group =>   3
Atom  85H    basis set group =>   4
Atom  86H    basis set group =>   4
Atom  87H    basis set group =>   4
Atom  88H    basis set group =>   4
Atom  89H    basis set group =>   4
Atom  90H    basis set group =>   4
Atom  91N    basis set group =>   6
Atom  92N    basis set group =>   6
Atom  93O    basis set group =>   2
Atom  94O    basis set group =>   2
Atom  95C    basis set group =>   3
Atom  96H    basis set group =>   4
Atom  97H    basis set group =>   4
Atom  98H    basis set group =>   4
Atom  99C    basis set group =>   3
Atom 100H    basis set group =>   4
Atom 101H    basis set group =>   4
Atom 102H    basis set group =>   4
---------------------------------
AUXILIARY/C BASIS SET INFORMATION
---------------------------------
There are 6 groups of distinct atoms

 Group   1 Type P   : 10s7p7d3f contracted to 8s5p5d2f pattern {31111111/31111/31111/12}
 Group   2 Type O   : 8s6p5d3f contracted to 6s5p4d1f pattern {311111/21111/2111/3}
 Group   3 Type C   : 8s6p5d3f contracted to 6s5p4d1f pattern {311111/21111/2111/3}
 Group   4 Type H   : 4s3p2d contracted to 3s2p1d pattern {211/21/2}
 Group   5 Type Cu  : 9s9p6d4f3g2h contracted to 9s9p6d4f3g2h pattern {111111111/111111111/111111/1111/111/11}
 Group   6 Type N   : 8s6p5d3f contracted to 6s5p4d1f pattern {311111/21111/2111/3}

Atom   0P    basis set group =>   1
Atom   1P    basis set group =>   1
Atom   2O    basis set group =>   2
Atom   3C    basis set group =>   3
Atom   4C    basis set group =>   3
Atom   5H    basis set group =>   4
Atom   6C    basis set group =>   3
Atom   7H    basis set group =>   4
Atom   8C    basis set group =>   3
Atom   9H    basis set group =>   4
Atom  10C    basis set group =>   3
Atom  11H    basis set group =>   4
Atom  12C    basis set group =>   3
Atom  13H    basis set group =>   4
Atom  14C    basis set group =>   3
Atom  15C    basis set group =>   3
Atom  16H    basis set group =>   4
Atom  17C    basis set group =>   3
Atom  18H    basis set group =>   4
Atom  19C    basis set group =>   3
Atom  20H    basis set group =>   4
Atom  21C    basis set group =>   3
Atom  22C    basis set group =>   3
Atom  23C    basis set group =>   3
Atom  24C    basis set group =>   3
Atom  25H    basis set group =>   4
Atom  26C    basis set group =>   3
Atom  27H    basis set group =>   4
Atom  28C    basis set group =>   3
Atom  29H    basis set group =>   4
Atom  30C    basis set group =>   3
Atom  31C    basis set group =>   3
Atom  32C    basis set group =>   3
Atom  33H    basis set group =>   4
Atom  34C    basis set group =>   3
Atom  35H    basis set group =>   4
Atom  36C    basis set group =>   3
Atom  37H    basis set group =>   4
Atom  38C    basis set group =>   3
Atom  39H    basis set group =>   4
Atom  40C    basis set group =>   3
Atom  41H    basis set group =>   4
Atom  42C    basis set group =>   3
Atom  43C    basis set group =>   3
Atom  44H    basis set group =>   4
Atom  45C    basis set group =>   3
Atom  46H    basis set group =>   4
Atom  47C    basis set group =>   3
Atom  48H    basis set group =>   4
Atom  49C    basis set group =>   3
Atom  50H    basis set group =>   4
Atom  51C    basis set group =>   3
Atom  52H    basis set group =>   4
Atom  53C    basis set group =>   3
Atom  54C    basis set group =>   3
Atom  55C    basis set group =>   3
Atom  56H    basis set group =>   4
Atom  57H    basis set group =>   4
Atom  58H    basis set group =>   4
Atom  59C    basis set group =>   3
Atom  60H    basis set group =>   4
Atom  61H    basis set group =>   4
Atom  62H    basis set group =>   4
Atom  63C    basis set group =>   3
Atom  64C    basis set group =>   3
Atom  65H    basis set group =>   4
Atom  66C    basis set group =>   3
Atom  67H    basis set group =>   4
Atom  68C    basis set group =>   3
Atom  69H    basis set group =>   4
Atom  70C    basis set group =>   3
Atom  71H    basis set group =>   4
Atom  72C    basis set group =>   3
Atom  73H    basis set group =>   4
Atom  74Cu   basis set group =>   5
Atom  75C    basis set group =>   3
Atom  76C    basis set group =>   3
Atom  77C    basis set group =>   3
Atom  78C    basis set group =>   3
Atom  79C    basis set group =>   3
Atom  80C    basis set group =>   3
Atom  81C    basis set group =>   3
Atom  82C    basis set group =>   3
Atom  83C    basis set group =>   3
Atom  84C    basis set group =>   3
Atom  85H    basis set group =>   4
Atom  86H    basis set group =>   4
Atom  87H    basis set group =>   4
Atom  88H    basis set group =>   4
Atom  89H    basis set group =>   4
Atom  90H    basis set group =>   4
Atom  91N    basis set group =>   6
Atom  92N    basis set group =>   6
Atom  93O    basis set group =>   2
Atom  94O    basis set group =>   2
Atom  95C    basis set group =>   3
Atom  96H    basis set group =>   4
Atom  97H    basis set group =>   4
Atom  98H    basis set group =>   4
Atom  99C    basis set group =>   3
Atom 100H    basis set group =>   4
Atom 101H    basis set group =>   4
Atom 102H    basis set group =>   4


           ************************************************************
           *        Program running with 8 parallel MPI-processes     *
           *              working on a common directory               *
           ************************************************************
------------------------------------------------------------------------------
                           ORCA GTO INTEGRAL CALCULATION
                           -- RI-GTO INTEGRALS CHOSEN --
------------------------------------------------------------------------------
------------------------------------------------------------------------------
                   ___                                                        
                  /   \      - P O W E R E D   B Y -                         
                 /     \                                                     
                 |  |  |   _    _      __       _____    __    __             
                 |  |  |  | |  | |    /  \     |  _  \  |  |  /  |          
                  \  \/   | |  | |   /    \    | | | |  |  | /  /          
                 / \  \   | |__| |  /  /\  \   | |_| |  |  |/  /          
                |  |  |   |  __  | /  /__\  \  |    /   |      \           
                |  |  |   | |  | | |   __   |  |    \   |  |\   \          
                \     /   | |  | | |  |  |  |  | |\  \  |  | \   \       
                 \___/    |_|  |_| |__|  |__|  |_| \__\ |__|  \__/        
                                                                              
                      - O R C A' S   B I G   F R I E N D -                    
                                      &                                       
                       - I N T E G R A L  F E E D E R -                       
                                                                              
 v1 FN, 2020, v2 2021                                                         
------------------------------------------------------------------------------


Reading SHARK input file Cu50_XantPhos-dmbp_SOS-wPBEPP86_def2SVP.SHARKINP.tmp ... ok
----------------------
SHARK INTEGRAL PACKAGE
----------------------

Number of atoms                             ...    103
Number of basis functions                   ...   1071
Number of shells                            ...    495
Maximum angular momentum                    ...      3
Integral batch strategy                     ... SHARK/LIBINT Hybrid
RI-J (if used) integral strategy            ... SPLIT-RIJ (Revised 2003 algorithm where possible)
Printlevel                                  ...      1
Contraction scheme used                     ... SEGMENTED contraction
Coulomb Range Separation                    ... NOT USED
Exchange Range Separation                   ... Long Range
   Mu parameter                             ...  0.180000
   Scaling (regular/separated)              ...  0.700000  0.300000
Finite Nucleus Model                        ... NOT USED
Auxiliary Coulomb fitting basis             ... AVAILABLE
   # of basis functions in Aux-J            ...   3421
   # of shells in Aux-J                     ...   1117
   Maximum angular momentum in Aux-J        ...      4
Auxiliary J/K fitting basis                 ... NOT available
Auxiliary Correlation fitting basis         ... AVAILABLE
   # of basis functions in Aux-C            ...   3571
   # of shells in Aux-C                     ...   1233
   Maximum angular momentum in Aux-C        ...      5
Auxiliary 'external' fitting basis          ... NOT available
Integral threshold                          ...     2.500000e-11
Primitive cut-off                           ...     2.500000e-12
Primitive pair pre-selection threshold      ...     2.500000e-12

Calculating pre-screening integrals         ... done (  0.1 sec) Dimension = 495
Organizing shell pair data                  ... done (  0.3 sec)
Shell pair information
Total number of shell pairs                 ...    122760
Shell pairs after pre-screening             ...     65853
Total number of primitive shell pairs       ...    459349
Primitive shell pairs kept                  ...    138135
          la=0 lb=0:  20336 shell pairs
          la=1 lb=0:  24865 shell pairs
          la=1 lb=1:   7718 shell pairs
          la=2 lb=0:   7490 shell pairs
          la=2 lb=1:   4591 shell pairs
          la=2 lb=2:    590 shell pairs
          la=3 lb=0:    148 shell pairs
          la=3 lb=1:     92 shell pairs
          la=3 lb=2:     22 shell pairs
          la=3 lb=3:      1 shell pairs

Calculating one electron integrals          ... done (  0.2 sec)
Calculating RI/J V-Matrix + Cholesky decomp.... done (  0.7 sec)
Calculating RI/C V-Matrix + Cholesky decomp.... done (  0.7 sec)
Calculating Nuclear repulsion               ... done (  0.0 sec) ENN=  10516.674743888672 Eh

SHARK setup successfully completed in   2.3 seconds

Maximum memory used throughout the entire GTOINT-calculation: 119.0 MB


           ************************************************************
           *        Program running with 8 parallel MPI-processes     *
           *              working on a common directory               *
           ************************************************************
-------------------------------------------------------------------------------
                                 ORCA SCF
-------------------------------------------------------------------------------

------------
SCF SETTINGS
------------
Hamiltonian:
 Density Functional     Method          .... DFT(GTOs)
 Exchange Functional    Exchange        .... LC-PBE
 Correlation Functional Correlation     .... P86
 LDA part of GGA corr.  LDAOpt          .... VWN-5
 Gradients option       PostSCFGGA      .... off
 Hybrid DFT is turned on
   Fraction HF Exchange ScalHFX         ....  0.700000
   Scaling of DF-GGA-X  ScalDFX         ....  0.000000
   Scaling of DF-GGA-C  ScalDFC         ....  0.680000
   Scaling of DF-LDA-C  ScalLDAC        ....  0.680000
   Perturbative correction              ....  0.480000
   Density functional embedding theory  .... OFF
 Long-range corrected/Screened/Range-Separated Hybrid DFT is turned on
   Amount of maximum screened exact exchange              ....  0.300000
   Range separation parameter mu (erf(mu*r12)/r12)        ....  0.180000
 RI-approximation to the Coulomb term is turned on
   Number of AuxJ basis functions       .... 3421
   RIJ-COSX (HFX calculated with COS-X)).... on


General Settings:
 Integral files         IntName         .... Cu50_XantPhos-dmbp_SOS-wPBEPP86_def2SVP
 Hartree-Fock type      HFTyp           .... RHF
 Total Charge           Charge          ....    1
 Multiplicity           Mult            ....    1
 Number of Electrons    NEL             ....  446
 Basis Dimension        Dim             .... 1071
 Nuclear Repulsion      ENuc            ....  10516.6747438887 Eh

Convergence Acceleration:
 DIIS                   CNVDIIS         .... on
   Start iteration      DIISMaxIt       ....    12
   Startup error        DIISStart       ....  0.200000
   # of expansion vecs  DIISMaxEq       ....     5
   Bias factor          DIISBfac        ....   1.050
   Max. coefficient     DIISMaxC        ....  10.000
 Trust-Rad. Augm. Hess. CNVTRAH         .... auto
   Auto Start mean grad. ratio tolernc. ....  1.125000
   Auto Start start iteration           ....    20
   Auto Start num. interpolation iter.  ....    10
   Max. Number of Micro iterations      ....    16
   Max. Number of Macro iterations      .... Maxiter - #DIIS iter
   Number of Davidson start vectors     ....     2
   Converg. threshold I  (grad. norm)   ....   1.000e-05
   Converg. threshold II (energy diff.) ....   1.000e-08
   Grad. Scal. Fac. for Micro threshold ....   0.100
   Minimum threshold for Micro iter.    ....   0.010
   NR start threshold (gradient norm)   ....   0.001
   Initial trust radius                 ....   0.400
   Minimum AH scaling param. (alpha)    ....   1.000
   Maximum AH scaling param. (alpha)    .... 1000.000
   Orbital update algorithm             .... Taylor
   White noise on init. David. guess    .... on
   Maximum white noise                  ....   0.010
   Quad. conv. algorithm                .... NR
 SOSCF                  CNVSOSCF        .... off
 Level Shifting         CNVShift        .... on
   Level shift para.    LevelShift      ....    0.2500
   Turn off err/grad.   ShiftErr        ....    0.0010
 Zerner damping         CNVZerner       .... off
 Static damping         CNVDamp         .... on
   Fraction old density DampFac         ....    0.7000
   Max. Damping (<1)    DampMax         ....    0.9800
   Min. Damping (>=0)   DampMin         ....    0.0000
   Turn off err/grad.   DampErr         ....    0.1000
 Fernandez-Rico         CNVRico         .... off

SCF Procedure:
 Maximum # iterations   MaxIter         ....   125
 SCF integral mode      SCFMode         .... Direct
   Integral package                     .... SHARK and LIBINT hybrid scheme
 Reset frequency        DirectResetFreq ....    20
 Integral Threshold     Thresh          ....  2.500e-11 Eh
 Primitive CutOff       TCut            ....  2.500e-12 Eh

Convergence Tolerance:
 Convergence Check Mode ConvCheckMode   .... Total+1el-Energy
 Convergence forced     ConvForced      .... 1
 Energy Change          TolE            ....  1.000e-08 Eh
 1-El. energy change                    ....  1.000e-05 Eh
 DIIS Error             TolErr          ....  5.000e-07


Diagonalization of the overlap matrix:
Smallest eigenvalue                        ... 1.828e-04
Time for diagonalization                   ...    0.166 sec
Threshold for overlap eigenvalues          ... 1.000e-08
Number of eigenvalues below threshold      ... 0
Time for construction of square roots      ...    0.135 sec
Total time needed                          ...    0.304 sec

Time for model grid setup =    1.370 sec

------------------------------
INITIAL GUESS: MODEL POTENTIAL
------------------------------
Loading Hartree-Fock densities                     ... done
Calculating cut-offs                               ... done
Initializing the effective Hamiltonian             ... done
Setting up the integral package (SHARK)            ... done
Starting the Coulomb interaction                   ... done (   1.4 sec)
Reading the grid                                   ... done
Mapping shells                                     ... done
Starting the XC term evaluation                    ... done (   0.4 sec)
  promolecular density results
     # of electrons  =    446.972089596
     EX              =   -407.876167863
     EC              =     -7.749018500
     EX+EC           =   -415.625186363
Transforming the Hamiltonian                       ... done (   0.1 sec)
Diagonalizing the Hamiltonian                      ... done (   0.1 sec)
Back transforming the eigenvectors                 ... done (   0.0 sec)
Now organizing SCF variables                       ... done
                      ------------------
                      INITIAL GUESS DONE (   3.4 sec)
                      ------------------
-------------------
DFT GRID GENERATION
-------------------

General Integration Accuracy     IntAcc      ... 4.388
Radial Grid Type                 RadialGrid  ... OptM3 with GC (2021)
Angular Grid (max. ang.)         AngularGrid ... 4 (Lebedev-302)
Angular grid pruning method      GridPruning ... 4 (adaptive)
Weight generation scheme         WeightScheme... Becke
Basis function cutoff            BFCut       ... 1.0000e-11
Integration weight cutoff        WCut        ... 1.0000e-14
Angular grids for H and He will be reduced by one unit
Partially contracted basis set               ... off
Rotationally invariant grid construction     ... off

Total number of grid points                  ...   493897
Total number of batches                      ...     7773
Average number of points per batch           ...       63
Average number of grid points per atom       ...     4795
Time for grid setup =    5.265 sec

--------------------
COSX GRID GENERATION
--------------------

GRIDX 1
-------
General Integration Accuracy     IntAcc      ... 3.816
Radial Grid Type                 RadialGrid  ... OptM3 with GC (2021)
Angular Grid (max. ang.)         AngularGrid ... 1 (Lebedev-50)
Angular grid pruning method      GridPruning ... 4 (adaptive)
Weight generation scheme         WeightScheme... Becke
Basis function cutoff            BFCut       ... 1.0000e-11
Integration weight cutoff        WCut        ... 1.0000e-14
Angular grids for H and He will be reduced by one unit
Partially contracted basis set               ... on
Rotationally invariant grid construction     ... off

Total number of grid points                  ...    62213
Total number of batches                      ...     1018
Average number of points per batch           ...       61
Average number of grid points per atom       ...      604
UseSFitting                                  ... on

GRIDX 2
-------
General Integration Accuracy     IntAcc      ... 4.020
Radial Grid Type                 RadialGrid  ... OptM3 with GC (2021)
Angular Grid (max. ang.)         AngularGrid ... 2 (Lebedev-110)
Angular grid pruning method      GridPruning ... 4 (adaptive)
Weight generation scheme         WeightScheme... Becke
Basis function cutoff            BFCut       ... 1.0000e-11
Integration weight cutoff        WCut        ... 1.0000e-14
Angular grids for H and He will be reduced by one unit
Partially contracted basis set               ... on
Rotationally invariant grid construction     ... off

Total number of grid points                  ...   132886
Total number of batches                      ...     2125
Average number of points per batch           ...       62
Average number of grid points per atom       ...     1290
UseSFitting                                  ... on

GRIDX 3
-------
General Integration Accuracy     IntAcc      ... 4.338
Radial Grid Type                 RadialGrid  ... OptM3 with GC (2021)
Angular Grid (max. ang.)         AngularGrid ... 3 (Lebedev-194)
Angular grid pruning method      GridPruning ... 4 (adaptive)
Weight generation scheme         WeightScheme... Becke
Basis function cutoff            BFCut       ... 1.0000e-11
Integration weight cutoff        WCut        ... 1.0000e-14
Angular grids for H and He will be reduced by one unit
Partially contracted basis set               ... on
Rotationally invariant grid construction     ... off

Total number of grid points                  ...   289211
Total number of batches                      ...     4572
Average number of points per batch           ...       63
Average number of grid points per atom       ...     2808
UseSFitting                                  ... on

Time for X-Grid setup             =    5.599 sec


--------------------
CPCM SOLVATION MODEL
--------------------
CPCM parameters:
  Epsilon                                         ...       8.9300
  Refrac                                          ...       1.4242
  Rsolv                                           ...       1.3000
  Surface type                                    ... GAUSSIAN VDW
  Epsilon function type                           ...         CPCM
Solvent:                                     ... CH2CL2
SMD-CDS solvent descriptors:
  Soln                                       ...    1.4242
  Soln25                                     ...    1.4212
  Sola                                       ...    0.1000
  Solb                                       ...    0.0500
  Solg                                       ...   39.1500
  Solc                                       ...    0.0000
  Solh                                       ...    0.6670
Radii:
 Radius for P  used is    4.0062 Bohr (=   2.1200 Ang.)
 Radius for O  used is    3.9949 Bohr (=   2.1140 Ang.)
 Radius for C  used is    3.4960 Bohr (=   1.8500 Ang.)
 Radius for H  used is    2.2677 Bohr (=   1.2000 Ang.)
 Radius for Cu used is    3.5149 Bohr (=   1.8600 Ang.)
 Radius for N  used is    3.5716 Bohr (=   1.8900 Ang.)
Calculating surface                               ...        done! (  0.0s)
GEPOL surface points                              ...         5746
GEPOL Volume                                      ...    5606.3350
GEPOL Surface-area                                ...    2814.5522
Calculating surface distance matrix               ...        done! (  0.2s)
Performing Cholesky decomposition & store         ...        done! (  1.2s)
Overall time for CPCM initialization              ...                 1.4s
--------------
SCF ITERATIONS
--------------
ITER       Energy         Delta-E        Max-DP      RMS-DP      [F,P]     Damp
               ***  Starting incremental Fock matrix formation  ***
  0  -4617.5455380617   0.000000000000 0.12000262  0.00108252  0.1518357 0.7000
  1  -4617.9247221125  -0.379184050746 0.11379334  0.00085191  0.0966912 0.7000
                               ***Turning on DIIS***
  2  -4618.1522966571  -0.227574544658 0.31509970  0.00201043  0.0552633 0.0000
  3  -4618.5882351431  -0.435938485924 0.04896369  0.00032286  0.0350960 0.0000
  4  -4618.6200116759  -0.031776532835 0.01969538  0.00012421  0.0099509 0.0000
  5  -4618.6217328831  -0.001721207152 0.01539256  0.00006282  0.0138655 0.0000
  6  -4618.6222368040  -0.000503920974 0.00369205  0.00003232  0.0080554 0.0000
  7  -4618.6224088355  -0.000172031486 0.00264998  0.00001397  0.0020024 0.0000
  8  -4618.6224499782  -0.000041142661 0.00122265  0.00001136  0.0005141 0.0000
               *** Restarting incremental Fock matrix formation ***
                                   *** Resetting DIIS ***
  9  -4618.6222552784   0.000194699734 0.00159798  0.00001833  0.0003456 0.0000
 10  -4618.6222592610  -0.000003982551 0.00028574  0.00000300  0.0003569 0.0000
 11  -4618.6222597771  -0.000000516096 0.00020623  0.00000180  0.0004347 0.0000
 12  -4618.6222600331  -0.000000256035 0.00008251  0.00000064  0.0001561 0.0000
 13  -4618.6222601011  -0.000000067937 0.00002964  0.00000034  0.0000592 0.0000
 14  -4618.6222600884   0.000000012701 0.00001041  0.00000011  0.0000097 0.0000
 15  -4618.6222600927  -0.000000004335 0.00000457  0.00000006  0.0000031 0.0000
 16  -4618.6222601921  -0.000000099378 0.00000243  0.00000003  0.0000016 0.0000
 17  -4618.6222602509  -0.000000058822 0.00000117  0.00000002  0.0000017 0.0000
 18  -4618.6222603631  -0.000000112174 0.00000143  0.00000001  0.0000019 0.0000
                            ***DIIS convergence achieved***

               *****************************************************
               *                     SUCCESS                       *
               *           SCF CONVERGED AFTER  19 CYCLES          *
               *****************************************************

Old exchange energy                            =   -313.033162312 Eh
New exchange energy                            =   -313.033614251 Eh
Exchange energy change after final integration =     -0.000451939 Eh
Total energy after final integration           =  -4618.622712387 Eh
Final COS-X integration done in                =   141.045 sec

SMD CDS free energy correction energy :               -15.20165     Kcal/mol
Total Energy after SMD CDS correction =             -4618.646937759 Eh

----------------
TOTAL SCF ENERGY
----------------

Total Energy       :        -4618.64693776 Eh         -125679.77261 eV

Components:
Nuclear Repulsion  :        10516.67474389 Eh          286173.26855 eV
Electronic Energy  :       -15135.32168165 Eh         -411853.04116 eV
One Electron Energy:       -27281.80538408 Eh         -742375.66615 eV
Two Electron Energy:        12146.48370244 Eh          330522.62499 eV
Max COSX asymmetry :            0.00005567 Eh               0.00151 eV
CPCM Dielectric    :           -0.07743641 Eh              -2.10715 eV
SMD CDS (Gcds)     :           -0.02422537 Eh              -0.65921 eV

Virial components:
Potential Energy   :        -9213.02718011 Eh         -250699.21487 eV
Kinetic Energy     :         4594.38024235 Eh          125019.44226 eV
Virial Ratio       :            2.00528182


DFT components:
N(Alpha)           :      223.000125394553 electrons
N(Beta)            :      223.000125394553 electrons
N(Total)           :      446.000250789107 electrons
E(X)               :     -113.651633310043 Eh       
E(C)               :      -11.712841249106 Eh       
E(XC)              :     -125.364474559148 Eh       
DFET-embed. en.    :        0.000000000000 Eh       
CPCM Solvation Model Properties:
Surface-charge          :           -1.06934092
Charge-correction       :            0.00488667 Eh               0.13297 eV
Free-energy (cav+disp)  :           -0.02422537 Eh              -0.65921 eV

---------------
SCF CONVERGENCE
---------------

  Last Energy change         ...   -8.4962e-08  Tolerance :   1.0000e-08
  Last MAX-Density change    ...    0.0000e+00  Tolerance :   1.0000e-07
  Last RMS-Density change    ...    0.0000e+00  Tolerance :   5.0000e-09
  Last DIIS Error            ...    6.9990e-07  Tolerance :   5.0000e-07

             **** THE GBW FILE WAS UPDATED (Cu50_XantPhos-dmbp_SOS-wPBEPP86_def2SVP.gbw) ****
             **** DENSITY Cu50_XantPhos-dmbp_SOS-wPBEPP86_def2SVP.scfp WAS UPDATED ****
             **** ENERGY FILE WAS UPDATED (Cu50_XantPhos-dmbp_SOS-wPBEPP86_def2SVP.en.tmp) ****
             **** THE GBW FILE WAS UPDATED (Cu50_XantPhos-dmbp_SOS-wPBEPP86_def2SVP.gbw) ****
             **** DENSITY Cu50_XantPhos-dmbp_SOS-wPBEPP86_def2SVP.scfp WAS UPDATED ****
----------------
ORBITAL ENERGIES
----------------

  NO   OCC          E(Eh)            E(eV) 
   0   2.0000    -326.662147     -8888.9289 
   1   2.0000     -78.915286     -2147.3941 
   2   2.0000     -78.911579     -2147.2932 
   3   2.0000     -40.117674     -1091.6574 
   4   2.0000     -35.071515      -954.3444 
   5   2.0000     -35.071261      -954.3375 
   6   2.0000     -35.070910      -954.3280 
   7   2.0000     -20.131777      -547.8135 
   8   2.0000     -20.115340      -547.3662 
   9   2.0000     -20.115293      -547.3650 
  10   2.0000     -15.172865      -412.8746 
  11   2.0000     -15.172842      -412.8740 
  12   2.0000     -10.981795      -298.8298 
  13   2.0000     -10.981695      -298.8271 
  14   2.0000     -10.963871      -298.3421 
  15   2.0000     -10.961849      -298.2871 
  16   2.0000     -10.953181      -298.0512 
  17   2.0000     -10.952703      -298.0382 
  18   2.0000     -10.941394      -297.7305 
  19   2.0000     -10.941090      -297.7222 
  20   2.0000     -10.929832      -297.4158 
  21   2.0000     -10.929718      -297.4127 
  22   2.0000     -10.910868      -296.8998 
  23   2.0000     -10.905344      -296.7495 
  24   2.0000     -10.903201      -296.6912 
  25   2.0000     -10.902876      -296.6823 
  26   2.0000     -10.902096      -296.6611 
  27   2.0000     -10.900488      -296.6174 
  28   2.0000     -10.899974      -296.6034 
  29   2.0000     -10.899809      -296.5989 
  30   2.0000     -10.899213      -296.5827 
  31   2.0000     -10.899203      -296.5824 
  32   2.0000     -10.899087      -296.5792 
[...]
   216a -> 225a  :     0.033163 
   216a -> 227a  :     0.018563 
   216a -> 234a  :     0.010152 
   218a -> 227a  :     0.010753 
   219a -> 231a  :     0.011100 
   219a -> 232a  :     0.024926 
   220a -> 236a  :     0.027717 
   221a -> 224a  :     0.020097 
   221a -> 236a  :     0.030123 
   222a -> 228a  :     0.012627 
   222a -> 231a  :     0.010687 
   222a -> 233a  :     0.074888 
   222a -> 234a  :     0.050804 
   222a -> 236a  :     0.064623 
   222a -> 237a  :     0.024300 

STATE 38:  E=   0.215690 au      5.869 eV    47338.5 cm**-1 <S**2> =   0.000000
   204a -> 226a  :     0.024242 
   205a -> 223a  :     0.012275 
   206a -> 223a  :     0.012497 
   208a -> 223a  :     0.036389 
   218a -> 231a  :     0.017664 
   218a -> 232a  :     0.016531 
   219a -> 231a  :     0.037017 
   219a -> 232a  :     0.093618 
   220a -> 236a  :     0.013950 
   221a -> 231a  :     0.013876 
   221a -> 237a  :     0.016239 
   222a -> 225a  :     0.016099 
   222a -> 226a  :     0.017368 
   222a -> 231a  :     0.017844 
   222a -> 233a  :     0.048450 
   222a -> 234a  :     0.054255 
   222a -> 235a  :     0.030302 
   222a -> 236a  :     0.012732 

STATE 39:  E=   0.197412 au      5.372 eV    43326.9 cm**-1 <S**2> =   0.000000
   204a -> 223a  :     0.016591 
   204a -> 226a  :     0.012296 
   207a -> 224a  :     0.052099 
   207a -> 238a  :     0.028349 
   207a -> 240a  :     0.010816 
   208a -> 223a  :     0.014870 
   210a -> 229a  :     0.014482 
   211a -> 224a  :     0.066445 
   211a -> 225a  :     0.020696 
   211a -> 229a  :     0.012562 
   212a -> 224a  :     0.020150 
   218a -> 232a  :     0.016575 
   219a -> 231a  :     0.029710 
   219a -> 232a  :     0.032808 
   222a -> 228a  :     0.013520 
   222a -> 229a  :     0.014336 
   222a -> 233a  :     0.104090 
   222a -> 234a  :     0.020081 

STATE 40:  E=   0.217783 au      5.926 eV    47797.8 cm**-1 <S**2> =   0.000000
   204a -> 223a  :     0.016226 
   206a -> 227a  :     0.012061 
   208a -> 224a  :     0.019268 
   209a -> 224a  :     0.013463 
   209a -> 227a  :     0.012639 
   210a -> 224a  :     0.027516 
   210a -> 225a  :     0.010252 
   211a -> 225a  :     0.017921 
   211a -> 226a  :     0.014523 
   211a -> 231a  :     0.011657 
   211a -> 233a  :     0.012722 
   211a -> 235a  :     0.010171 
   212a -> 225a  :     0.020211 
   213a -> 230a  :     0.014572 
   213a -> 236a  :     0.016612 
   216a -> 227a  :     0.013283 
   216a -> 228a  :     0.010436 
   216a -> 229a  :     0.017633 
   218a -> 229a  :     0.015206 
   219a -> 231a  :     0.013744 
   219a -> 232a  :     0.010166 
   220a -> 224a  :     0.018898 
   221a -> 227a  :     0.010562 
   221a -> 237a  :     0.020835 
   222a -> 226a  :     0.014567 
   222a -> 230a  :     0.015008 
   222a -> 235a  :     0.030420 
   222a -> 236a  :     0.028860 


-------------------------
TD-DFT-EXCITATION SPECTRA
-------------------------

Center of mass = ( -0.0207, -0.0095,  0.0233)
Calculating the Dipole integrals                  ... done
Transforming integrals                            ... done
Calculating the Linear Momentum integrals         ... done
Transforming integrals                            ... done
Calculating angular momentum integrals            ... done
Transforming integrals                            ... done

-----------------------------------------------------------------------------
         ABSORPTION SPECTRUM VIA TRANSITION ELECTRIC DIPOLE MOMENTS
-----------------------------------------------------------------------------
State   Energy    Wavelength  fosc         T2        TX        TY        TZ  
        (cm-1)      (nm)                 (au**2)    (au)      (au)      (au) 
-----------------------------------------------------------------------------
   1   37955.6    263.5   0.268630470   2.32999   0.60999   1.13908  -0.81265
   2   26748.3    373.9   0.128477271   1.58127  -1.15550   0.36000  -0.34129
   3   34280.8    291.7   0.064233343   0.61686  -0.02327   0.77612   0.11810
   4   36480.5    274.1   0.251085696   2.26588   0.77815   0.77247  -1.03134
   5   37293.1    268.1   0.083405566   0.73628   0.54908   0.41413  -0.51311
   6   38619.3    258.9   0.054328135   0.46312   0.49076   0.46970   0.04075
   7   29385.9    340.3   0.034273892   0.38397   0.52709  -0.13815   0.29506
   8   37388.3    267.5   0.109801800   0.96683   0.16872   0.35037   0.90311
   9   39428.0    253.6   0.161813928   1.35110   0.53155  -0.78722   0.66995
  10   38771.5    257.9   0.034965392   0.29689  -0.14489  -0.39936   0.34119
  11   39109.1    255.7   0.034829140   0.29318  -0.42674   0.20795   0.26045
  12   39309.9    254.4   0.172691444   1.44626  -0.78073   0.60453  -0.68648
  13   38363.1    260.7   0.001441352   0.01237  -0.04499  -0.10156  -0.00557
  14   38568.4    259.3   0.016841592   0.14376   0.37872   0.00225  -0.01792
  15   42135.5    237.3   0.023253835   0.18169   0.27181  -0.32090  -0.06950
  16   38659.4    258.7   0.046522035   0.39617  -0.56679  -0.09079   0.25822
  17   39495.5    253.2   0.182118916   1.51804  -0.38718  -0.85213  -0.80125
  18   39476.3    253.3   0.019968050   0.16652  -0.12801   0.29821   0.24741
  19   43635.2    229.2   0.020829780   0.15715  -0.35173   0.18153   0.02201
  20   40860.0    244.7   0.043039716   0.34677  -0.55606   0.17278  -0.08787
  21   44916.1    222.6   0.111872002   0.81996  -0.27299   0.28640   0.81450
  22   45528.2    219.6   0.105206236   0.76074   0.41994   0.71059   0.28189
  23   43125.9    231.9   0.512019317   3.90862   0.61353   1.53103  -1.09002
  24   37533.4    266.4   0.021283441   0.18668   0.36278  -0.21083  -0.10305
  25   43618.7    229.3   0.208267872   1.57190  -0.06882   1.21569   0.29878
  26   45569.9    219.4   0.119607756   0.86409   0.27420  -0.38429  -0.80076
  27   45647.6    219.1   0.701319662   5.05794   0.36900   2.19966  -0.28858
  28   43000.9    232.6   0.176706019   1.35285   0.02711  -0.01079  -1.16275
  29   47239.6    211.7   0.504412577   3.51524  -1.57603  -0.56156  -0.84619
  30   41591.4    240.4   0.031702572   0.25094   0.07672  -0.49502  -0.00164
  31   42341.2    236.2   0.115102802   0.89495   0.04812  -0.53600  -0.77803
  32   43119.0    231.9   0.047543414   0.36299  -0.19388  -0.39766  -0.40899
  33   45476.1    219.9   0.053363035   0.38631  -0.44169   0.09300   0.42728
  34   42140.8    237.3   0.080968593   0.63254  -0.64532   0.17596   0.43028
  35   47318.1    211.3   0.626617112   4.35964  -1.41064  -1.13145   1.04381
  36   48795.9    204.9   1.073173450   7.24039  -1.51823  -0.42197   2.18112
  37   49353.3    202.6   0.085717066   0.57178  -0.55337   0.48627   0.17057
  38   47338.5    211.2   0.832079390   5.78663  -2.01761   1.21197   0.49698
  39   43326.9    230.8   0.362073632   2.75115  -0.56194  -1.32361  -0.82670
  40   47797.8    209.2   0.170982013   1.17765  -0.21823   0.15028  -1.05235

-----------------------------------------------------------------------------
         ABSORPTION SPECTRUM VIA TRANSITION VELOCITY DIPOLE MOMENTS
-----------------------------------------------------------------------------
State   Energy    Wavelength   fosc        P2         PX        PY        PZ  
        (cm-1)      (nm)                 (au**2)     (au)      (au)      (au) 
-----------------------------------------------------------------------------
   1   37955.6    263.5   0.279725780   0.07256  -0.10724  -0.20209   0.14219
   2   26748.3    373.9   0.315218478   0.05763   0.22013  -0.07042   0.06488
   3   34280.8    291.7   0.099567104   0.02333   0.00540  -0.15098  -0.02246
   4   36480.5    274.1   0.365137555   0.09104  -0.15637  -0.15392   0.20711
   5   37293.1    268.1   0.114320353   0.02914  -0.10627  -0.08520   0.10288
   6   38619.3    258.9   0.070739612   0.01867  -0.09624  -0.09684  -0.00546
   7   29385.9    340.3   0.077175816   0.01550  -0.10658   0.02845  -0.05773
   8   37388.3    267.5   0.162996136   0.04165  -0.03793  -0.07414  -0.18632
   9   39428.0    253.6   0.212720989   0.05732  -0.11269   0.16190  -0.13568
  10   38771.5    257.9   0.051800740   0.01373   0.03159   0.08627  -0.07270
  11   39109.1    255.7   0.046097006   0.01232   0.08800  -0.04003  -0.05455
  12   39309.9    254.4   0.237244867   0.06374   0.16520  -0.12555   0.14383
  13   38363.1    260.7   0.002046087   0.00054   0.00878   0.02134   0.00204
  14   38568.4    259.3   0.024893880   0.00656  -0.08084  -0.00120   0.00504
  15   42135.5    237.3   0.030853170   0.00888  -0.05656   0.07248   0.02078
  16   38659.4    258.7   0.065886877   0.01741   0.11730   0.01772  -0.05775
  17   39495.5    253.2   0.278663967   0.07522   0.08403   0.18989   0.17917
  18   39476.3    253.3   0.023071638   0.00622   0.02787  -0.05742  -0.04638
  19   43635.2    229.2   0.024576914   0.00733   0.07751  -0.03624  -0.00283
  20   40860.0    244.7   0.058377344   0.01630   0.12003  -0.03866   0.02001
  21   44916.1    222.6   0.141985107   0.04359   0.05958  -0.06411  -0.18954
  22   45528.2    219.6   0.135671560   0.04222  -0.09645  -0.16982  -0.06384
  23   43125.9    231.9   0.720193039   0.21227  -0.14407  -0.35542   0.25533
  24   37533.4    266.4   0.038293623   0.00982  -0.08151   0.05142   0.02311
  25   43618.7    229.3   0.300813250   0.08968   0.01725  -0.29145  -0.06659
  26   45569.9    219.4   0.154595239   0.04815  -0.06325   0.09514   0.18734
  27   45647.6    219.1   0.874003833   0.27267  -0.07999  -0.51237   0.06123
  28   43000.9    232.6   0.260166856   0.07646  -0.00436  -0.00210   0.27647
  29   47239.6    211.7   0.621757955   0.20074   0.37609   0.13590   0.20205
  30   41591.4    240.4   0.047725475   0.01357  -0.01732   0.11518  -0.00056
  31   42341.2    236.2   0.184280059   0.05333  -0.01541   0.13098   0.18957
  32   43119.0    231.9   0.067273930   0.01983   0.04865   0.09747   0.08921
  33   45476.1    219.9   0.076290574   0.02371   0.11297  -0.01870  -0.10296
  34   42140.8    237.3   0.138676601   0.03994   0.16480  -0.04789  -0.10240
  35   47318.1    211.3   0.811558616   0.26245   0.34916   0.27328  -0.25663
  36   48795.9    204.9   1.325298319   0.44198   0.37507   0.10519  -0.53874
  37   49353.3    202.6   0.103270199   0.03483   0.13459  -0.12194  -0.04302
  38   47338.5    211.2   1.092869414   0.35358   0.49700  -0.30232  -0.12318
  39   43326.9    230.8   0.581773118   0.17227   0.14060   0.33077   0.20760
  40   47797.8    209.2   0.217625682   0.07109   0.05028  -0.03360   0.25968

-------------------------------------------------------------------
                             CD SPECTRUM
-------------------------------------------------------------------
State  Energy     Wavelength     R         MX        MY        MZ   
       (cm-1)       (nm)     (1e40*cgs)   (au)      (au)      (au)  
-------------------------------------------------------------------
   1   37955.6    263.5     19.88329  -0.18574  -0.59385  -1.02371
   2   26748.3    373.9    214.96741  -0.35614   0.05963  -0.06734
   3   34280.8    291.7    -164.75662   0.78778  -0.47692   0.33032
   4   36480.5    274.1    -122.08527  -0.21268   0.06418   0.13869
   5   37293.1    268.1     47.68095   0.34201  -0.08875   0.09725
   6   38619.3    258.9    -118.12991  -0.59671   0.04744   0.49067
   7   29385.9    340.3     62.48442   0.12620  -0.12795   0.16383
   8   37388.3    267.5     90.53935   0.00482  -0.41116   0.37127
   9   39428.0    253.6    -123.79481  -0.03295   0.03801  -0.32114
  10   38771.5    257.9    -31.30230   0.07159   0.10228  -0.04448
  11   39109.1    255.7     10.21789  -0.01987  -0.11664   0.14378
  12   39309.9    254.4     87.93189  -0.05761   0.11617  -0.10388
  13   38363.1    260.7     16.47095  -0.05593  -0.33284   0.24798
  14   38568.4    259.3     22.48885   0.13011   0.00852   0.08887
  15   42135.5    237.3     -9.84090  -0.19559  -0.09749  -0.01446
  16   38659.4    258.7     36.54194  -0.13032  -0.07327  -0.01164
  17   39495.5    253.2     -0.38216   0.40594   0.11016  -0.31230
  18   39476.3    253.3     -4.28859   0.00549  -0.03178   0.00438
  19   43635.2    229.2    -24.47401   0.05218  -0.17441  -0.08630
  20   40860.0    244.7    -14.70519   0.03246  -0.08871  -0.02489
  21   44916.1    222.6    167.75735  -0.28321   0.04406   0.32646
  22   45528.2    219.6     21.49101  -0.31335   0.05673   0.48552
  23   43125.9    231.9    141.69547  -0.20420  -0.14386  -0.59273
  24   37533.4    266.4      5.30375  -0.12895  -0.10309  -0.35223
  25   43618.7    229.3    179.99293   0.55214   0.17127   0.70812
  26   45569.9    219.4    174.81664  -0.53263   0.17101  -0.72752
  27   45647.6    219.1    -1744.90650   0.16635  -1.85354  -1.09023
  28   43000.9    232.6    438.71935  -1.30744   1.15872  -0.84156
  29   47239.6    211.7    414.23769  -0.91162  -0.10453   0.72891
  30   41591.4    240.4    -377.86889   0.32363   1.66863   0.19275
  31   42341.2    236.2    -20.21462  -0.95540   0.58241  -0.40522
  32   43119.0    231.9    242.27554  -1.11489   0.51571  -1.22941
  33   45476.1    219.9    238.66173  -0.96186  -0.83000   0.37113
  34   42140.8    237.3    -24.14658  -0.52736   0.18654  -0.98623
  35   47318.1    211.3    -56.88403   0.65176  -1.02335  -0.34405
  36   48795.9    204.9    1755.96859  -1.33972  -0.87978   0.60490
  37   49353.3    202.6    -10.92801  -0.85756  -1.61892   1.69728
  38   47338.5    211.2    -926.86496   0.50220  -0.41416  -0.90705
  39   43326.9    230.8    -72.52205   0.08528   0.40315  -0.51737
  40   47797.8    209.2    -299.43261   0.13929  -0.45480   0.50970

-------------------------------------------------------------------
         CD SPECTRUM VIA TRANSITION VELOCITY DIPOLE MOMENTS        
-------------------------------------------------------------------
State  Energy     Wavelength     R         MX        MY        MZ   
       (cm-1)       (nm)     (1e40*cgs)   (au)      (au)      (au)  
-------------------------------------------------------------------
   1   37955.6    263.5     15.35383  -0.18574  -0.59385  -1.02371
   2   26748.3    373.9    336.41056  -0.35614   0.05963  -0.06734
   3   34280.8    291.7    -207.79168   0.78778  -0.47692   0.33032
   4   36480.5    274.1    -147.78330  -0.21268   0.06418   0.13869
   5   37293.1    268.1     52.10510   0.34201  -0.08875   0.09725
   6   38619.3    258.9    -134.38150  -0.59671   0.04744   0.49067
   7   29385.9    340.3     93.47536   0.12620  -0.12795   0.16383
   8   37388.3    267.5    107.57846   0.00482  -0.41116   0.37127
   9   39428.0    253.6    -140.24478  -0.03295   0.03801  -0.32114
  10   38771.5    257.9    -38.21379   0.07159   0.10228  -0.04448
  11   39109.1    255.7     13.02494  -0.01987  -0.11664   0.14378
  12   39309.9    254.4    102.76590  -0.05761   0.11617  -0.10388
  13   38363.1    260.7     19.11074  -0.05593  -0.33284   0.24798
  14   38568.4    259.3     27.04312   0.13011   0.00852   0.08887
  15   42135.5    237.3     -9.07751  -0.19559  -0.09749  -0.01446
  16   38659.4    258.7     42.58962  -0.13032  -0.07327  -0.01164
  17   39495.5    253.2      2.42010   0.40594   0.11016  -0.31230
  18   39476.3    253.3     -4.65154   0.00549  -0.03178   0.00438
  19   43635.2    229.2    -25.15788   0.05218  -0.17441  -0.08630
  20   40860.0    244.7    -17.29162   0.03246  -0.08871  -0.02489
  21   44916.1    222.6    187.92369  -0.28321   0.04406   0.32646
  22   45528.2    219.6     23.65478  -0.31335   0.05673   0.48552
  23   43125.9    231.9    169.85895  -0.20420  -0.14386  -0.59273
  24   37533.4    266.4      8.07911  -0.12895  -0.10309  -0.35223
  25   43618.7    229.3    207.67770   0.55214   0.17127   0.70812
  26   45569.9    219.4    196.03819  -0.53263   0.17101  -0.72752
  27   45647.6    219.1    -1971.24255   0.16635  -1.85354  -1.09023
  28   43000.9    232.6    551.98872  -1.30744   1.15872  -0.84156
  29   47239.6    211.7    459.49654  -0.91162  -0.10453   0.72891
  30   41591.4    240.4    -463.91384   0.32363   1.66863   0.19275
  31   42341.2    236.2    -34.67311  -0.95540   0.58241  -0.40522
  32   43119.0    231.9    272.69813  -1.11489   0.51571  -1.22941
  33   45476.1    219.9    298.86667  -0.96186  -0.83000   0.37113
  34   42140.8    237.3    -12.63802  -0.52736   0.18654  -0.98623
  35   47318.1    211.3    -79.15362   0.65176  -1.02335  -0.34405
  36   48795.9    204.9    1952.79764  -1.33972  -0.87978   0.60490
  37   49353.3    202.6    -18.84834  -0.85756  -1.61892   1.69728
  38   47338.5    211.2    -1063.45807   0.50220  -0.41416  -0.90705
  39   43326.9    230.8    -90.59707   0.08528   0.40315  -0.51737
  40   47797.8    209.2    -334.77427   0.13929  -0.45480   0.50970

Total run time:    30989.504 sec

           *** ORCA-CIS/TD-DFT FINISHED WITHOUT ERROR ***

Maximum memory used throughout the entire CIS-calculation: 7566.6 MB

-----------------------
CIS/TD-DFT TOTAL ENERGY
-----------------------

    E(SCF)  =  -4618.646937759 Eh
    DE(CIS) =      0.172938645 Eh (Root  1)
    ----------------------------- ---------
    E(tot)  =  -4618.473999115 Eh


-------------------------   --------------------
FINAL SINGLE POINT ENERGY     -4618.473999114531
-------------------------   --------------------


                            ***************************************
                            *     ORCA property calculations      *
                            ***************************************


  WARNING: The energy has been calculated at the MP2 level but the densities
           used in the property calculations are still SCF densities
           MP2 response densities have not been calculated 
           use %mp2 Density relaxed end
           or  %mp2 Density unrelaxed end

                                    ---------------------
                                    Active property flags
                                    ---------------------
   (+) Dipole Moment


------------------------------------------------------------------------------
                       ORCA ELECTRIC PROPERTIES CALCULATION
------------------------------------------------------------------------------

Dipole Moment Calculation                       ... on
Quadrupole Moment Calculation                   ... off
Polarizability Calculation                      ... off
GBWName                                         ... Cu50_XantPhos-dmbp_SOS-wPBEPP86_def2SVP.gbw
Electron density                                ... Cu50_XantPhos-dmbp_SOS-wPBEPP86_def2SVP.scfp
The origin for moment calculation is the CENTER OF MASS  = (-0.020665, -0.009526  0.023305)

-------------
DIPOLE MOMENT
-------------
                                X             Y             Z
Electronic contribution:    -11.06519      -3.24570       9.92032
Nuclear contribution   :      9.23702       4.25834     -10.41740
                        -----------------------------------------
Total Dipole Moment    :     -1.82817       1.01264      -0.49708
                        -----------------------------------------
Magnitude (a.u.)       :      2.14819
Magnitude (Debye)      :      5.46028



--------------------
Rotational spectrum 
--------------------
 
Rotational constants in cm-1:     0.001616     0.001412     0.001317 
Rotational constants in MHz :    48.449182    42.326998    39.494599 

 Dipole components along the rotational axes: 
x,y,z [a.u.] :    -1.853903     0.947589    -0.529015 
x,y,z [Debye]:    -4.712247     2.408580    -1.344649 

 

Timings for individual modules:

Sum of individual times         ...    33239.849 sec (= 553.997 min)
GTO integral calculation        ...        3.492 sec (=   0.058 min)   0.0 %
SCF iterations                  ...      992.991 sec (=  16.550 min)   3.0 %
MP2 module                      ...     1251.825 sec (=  20.864 min)   3.8 %
CIS module                      ...    30991.542 sec (= 516.526 min)  93.2 %
                             ****ORCA TERMINATED NORMALLY****
TOTAL RUN TIME: 0 days 9 hours 14 minutes 4 seconds 343 msec
