
                                 *****************
                                 * O   R   C   A *
                                 *****************

                                            #,                                       
                                            ###                                      
                                            ####                                     
                                            #####                                    
                                            ######                                   
                                           ########,                                 
                                     ,,################,,,,,                         
                               ,,#################################,,                 
                          ,,##########################################,,             
                       ,#########################################, ''#####,          
                    ,#############################################,,   '####,        
                  ,##################################################,,,,####,       
                ,###########''''           ''''###############################       
              ,#####''   ,,,,##########,,,,          '''####'''          '####       
            ,##' ,,,,###########################,,,                        '##       
           ' ,,###''''                  '''############,,,                           
         ,,##''                                '''############,,,,        ,,,,,,###''
      ,#''                                            '''#######################'''  
     '                                                          ''''####''''         
             ,#######,   #######,   ,#######,      ##                                
            ,#'     '#,  ##    ##  ,#'     '#,    #''#        ######   ,####,        
            ##       ##  ##   ,#'  ##            #'  '#       #        #'  '#        
            ##       ##  #######   ##           ,######,      #####,   #    #        
            '#,     ,#'  ##    ##  '#,     ,#' ,#      #,         ##   #,  ,#        
             '#######'   ##     ##  '#######'  #'      '#     #####' # '####'        



                  #######################################################
                  #                        -***-                        #
                  #          Department of theory and spectroscopy      #
                  #    Directorship and core code : Frank Neese         #
                  #        Max Planck Institute fuer Kohlenforschung    #
                  #                Kaiser Wilhelm Platz 1               #
                  #                 D-45470 Muelheim/Ruhr               #
                  #                      Germany                        #
                  #                                                     #
                  #                  All rights reserved                #
                  #                        -***-                        #
                  #######################################################


                         Program Version 5.0.2 -  RELEASE  -


 With contributions from (in alphabetic order):
   Daniel Aravena         : Magnetic Suceptibility
   Michael Atanasov       : Ab Initio Ligand Field Theory (pilot matlab implementation)
   Alexander A. Auer      : GIAO ZORA, VPT2 properties, NMR spectrum
   Ute Becker             : Parallelization
   Giovanni Bistoni       : ED, misc. LED, open-shell LED, HFLD
   Martin Brehm           : Molecular dynamics
   Dmytro Bykov           : SCF Hessian
   Vijay G. Chilkuri      : MRCI spin determinant printing, contributions to CSF-ICE
   Dipayan Datta          : RHF DLPNO-CCSD density
   Achintya Kumar Dutta   : EOM-CC, STEOM-CC
   Dmitry Ganyushin       : Spin-Orbit,Spin-Spin,Magnetic field MRCI
   Miquel Garcia          : C-PCM and meta-GGA Hessian, CC/C-PCM, Gaussian charge scheme
   Yang Guo               : DLPNO-NEVPT2, F12-NEVPT2, CIM, IAO-localization
   Andreas Hansen         : Spin unrestricted coupled pair/coupled cluster methods
   Benjamin Helmich-Paris : MC-RPA, TRAH-SCF, COSX integrals
   Lee Huntington         : MR-EOM, pCC
   Robert Izsak           : Overlap fitted RIJCOSX, COSX-SCS-MP3, EOM
   Marcus Kettner         : VPT2
   Christian Kollmar      : KDIIS, OOCD, Brueckner-CCSD(T), CCSD density, CASPT2, CASPT2-K
   Simone Kossmann        : Meta GGA functionals, TD-DFT gradient, OOMP2, MP2 Hessian
   Martin Krupicka        : Initial AUTO-CI
   Lucas Lang             : DCDCAS
   Marvin Lechner         : AUTO-CI (C++ implementation), FIC-MRCC
   Dagmar Lenk            : GEPOL surface, SMD
   Dimitrios Liakos       : Extrapolation schemes; Compound Job, initial MDCI parallelization
   Dimitrios Manganas     : Further ROCIS development; embedding schemes
   Dimitrios Pantazis     : SARC Basis sets
   Anastasios Papadopoulos: AUTO-CI, single reference methods and gradients
   Taras Petrenko         : DFT Hessian,TD-DFT gradient, ASA, ECA, R-Raman, ABS, FL, XAS/XES, NRVS
   Peter Pinski           : DLPNO-MP2, DLPNO-MP2 Gradient
   Christoph Reimann      : Effective Core Potentials
   Marius Retegan         : Local ZFS, SOC
   Christoph Riplinger    : Optimizer, TS searches, QM/MM, DLPNO-CCSD(T), (RO)-DLPNO pert. Triples
   Tobias Risthaus        : Range-separated hybrids, TD-DFT gradient, RPA, STAB
   Michael Roemelt        : Original ROCIS implementation
   Masaaki Saitow         : Open-shell DLPNO-CCSD energy and density
   Barbara Sandhoefer     : DKH picture change effects
   Avijit Sen             : IP-ROCIS
   Kantharuban Sivalingam : CASSCF convergence, NEVPT2, FIC-MRCI
   Bernardo de Souza      : ESD, SOC TD-DFT
   Georgi Stoychev        : AutoAux, RI-MP2 NMR, DLPNO-MP2 response
   Willem Van den Heuvel  : Paramagnetic NMR
   Boris Wezisla          : Elementary symmetry handling
   Frank Wennmohs         : Technical directorship


 We gratefully acknowledge several colleagues who have allowed us to
 interface, adapt or use parts of their codes:
   Stefan Grimme, W. Hujo, H. Kruse, P. Pracht,  : VdW corrections, initial TS optimization,
                  C. Bannwarth, S. Ehlert          DFT functionals, gCP, sTDA/sTD-DF
   Ed Valeev, F. Pavosevic, A. Kumar             : LibInt (2-el integral package), F12 methods
   Garnet Chan, S. Sharma, J. Yang, R. Olivares  : DMRG
   Ulf Ekstrom                                   : XCFun DFT Library
   Mihaly Kallay                                 : mrcc  (arbitrary order and MRCC methods)
   Jiri Pittner, Ondrej Demel                    : Mk-CCSD
   Frank Weinhold                                : gennbo (NPA and NBO analysis)
   Christopher J. Cramer and Donald G. Truhlar   : smd solvation model
   Lars Goerigk                                  : TD-DFT with DH, B97 family of functionals
   V. Asgeirsson, H. Jonsson                     : NEB implementation
   FAccTs GmbH                                   : IRC, NEB, NEB-TS, DLPNO-Multilevel, CI-OPT
                                                   MM, QMMM, 2- and 3-layer-ONIOM, Crystal-QMMM,
                                                   LR-CPCM, SF, NACMEs, symmetry and pop. for TD-DFT,
                                                   nearIR, NL-DFT gradient (VV10), updates on ESD,
                                                   ML-optimized integration grids
   S Lehtola, MJT Oliveira, MAL Marques          : LibXC Library
   Liviu Ungur et al                             : ANISO software


 Your calculation uses the libint2 library for the computation of 2-el integrals
 For citations please refer to: http://libint.valeyev.net

 Your ORCA version has been built with support for libXC version: 5.1.0
 For citations please refer to: https://tddft.org/programs/libxc/

 This ORCA versions uses:
   CBLAS   interface :  Fast vector & matrix operations
   LAPACKE interface :  Fast linear algebra routines
   SCALAPACK package :  Parallel linear algebra routines
   Shared memory     :  Shared parallel matrices
   BLAS/LAPACK       :  OpenBLAS 0.3.15  USE64BITINT DYNAMIC_ARCH NO_AFFINITY Zen SINGLE_THREADED
        Core in use  :  Zen
   Copyright (c) 2011-2014, The OpenBLAS Project


Your calculation utilizes the SMD solvation module
Please cite in your paper:
A.V. Marenich, C.J. Cramer, D.G. Truhlar J. Phys. Chem. B, 113, (2009), 6378 

================================================================================

----- Orbital basis set information -----
Your calculation utilizes the basis: def2-SVP
   F. Weigend and R. Ahlrichs, Phys. Chem. Chem. Phys. 7, 3297 (2005).

----- AuxJ basis set information -----
Your calculation utilizes the auxiliary basis: def2/J
   F. Weigend, Phys. Chem. Chem. Phys. 8, 1057 (2006).

----- AuxC basis set information -----
Your calculation utilizes the auxiliary basis: def2-SVP/C
  H-La, Hf-Rn : A. Hellweg, C. Hattig, S. Hofener and W. Klopper, Theor. Chem. Acc. 117, 587 (2007).
        Ce-Lu : J. Chmela and M. E. Harding, Mol. Phys. (2018).

================================================================================
                                        WARNINGS
                       Please study these warnings very carefully!
================================================================================

INFO   : Checking CIS options ...
  ===> : (D) CORRECTION FOUND - SETTING MODE=3
  ===> : JK MODE FOUND - ACTIVATING RI-MP2 CODE
  ===> : MP2 AND CIS FOUND - CHECKING
WARNING: CIS(D) and MP2 runs must have the same orbital window
  ===> : adjusting orbital windows

WARNING: No MP2 level density has been requested!
         To caclulate MP2 level properties use
         %mp2 Density relaxed end
         or
         %mp2 Density unrelaxed end
         Otherwise for double-hybrid DFT only the energy is correct!

WARNING: The frozen-core approximation is turned on by default for 
         the MP2 part of double-hybrid DFT.

WARNING: CIS/ROCIS methods need fully converged wavefunctions
  ===> : Setting SCFConvForced true
         You can overwrite this default with %scf ConvForced false 


INFO   : the flag for use of the SHARK integral package has been found!

================================================================================
                                       INPUT FILE
================================================================================
NAME = Cu50_DPEPhos-pytri.inp
|  1> %maxcore 26000
|  2> %pal
|  3>  nprocs= 8
|  4> end
|  5> ! RI-SCS-PBE-QIDH  def2-SVP def2/J def2-SVP/C RIJCOSX CPCM TIGHTSCF
|  6> 
|  7> %TDDFT 
|  8>     DCORR      4
|  9>     NROOTS    40
| 10>    doscs true
| 11>     TDA       FALSE
| 12> END
| 13> 
| 14> %CPCM
| 15>     SMD		TRUE
| 16>     SMDsolvent	"CH2Cl2"
| 17> END
| 18> 
| 19> * xyz 1 1
| 20> C                   1.46688700    2.36797500   -1.12315800
| 21> C                   1.19773800    1.47972700   -2.18209700
| 22> C                   1.96232300    1.48629300   -3.34741800
| 23> C                   3.00456100    2.40387300   -3.47233000
| 24> C                   3.27463300    3.31080600   -2.44823500
| 25> C                   2.51031500    3.28810700   -1.28191700
| 26> C                   0.84611100   -1.66525100   -2.14769300
| 27> C                   0.10003300   -0.58342000   -2.65183900
| 28> C                  -0.73570300   -0.72464900   -3.75572900
| 29> C                  -0.82548700   -1.95968900   -4.39459700
| 30> C                  -0.08100500   -3.04285100   -3.92732300
| 31> C                   0.74111100   -2.89614100   -2.81133400
| 32> C                  -1.10204500    2.72998200    0.21863200
| 33> C                  -1.56400800    3.25631800   -0.99294400
| 34> C                  -2.89299400    3.66493100   -1.11989700
| 35> C                  -3.76945500    3.55294300   -0.04138000
| 36> C                  -3.31487000    3.02915200    1.17132900
| 37> C                  -1.99195900    2.61443700    1.29855600
| 38> C                   1.37067900    3.26383900    1.60855000
| 39> C                   2.39835600    2.79465700    2.43899300
| 40> C                   3.05204500    3.66186700    3.31334100
| 41> C                   2.67399800    5.00326700    3.37535900
| 42> C                   1.64425900    5.47608500    2.55989700
| 43> C                   0.99569100    4.61324200    1.67796300
| 44> C                   2.04170400   -3.11777200    0.04572500
| 45> C                   0.89406900   -3.83573300    0.42641900
| 46> C                   1.00955400   -5.07330000    1.05168400
| 47> C                   2.27305100   -5.60479100    1.32467400
| 48> C                   3.41524900   -4.89469700    0.96013300
| 49> C                   3.30410300   -3.65723600    0.32178800
| 50> C                   3.44990100   -0.86943700   -1.13991700
| 51> C                   4.08516100    0.13537000   -0.39937500
| 52> C                   5.35098800    0.59022600   -0.76886800
| 53> C                   5.98734200    0.04570300   -1.88381200
| 54> C                   5.35844300   -0.95471200   -2.62901300
| 55> C                   4.09493600   -1.41174600   -2.26112400
| 56> H                   1.74438700    0.77488800   -4.14727200
| 57> H                   3.60775500    2.40689200   -4.38332100
| 58> H                   4.08925700    4.03075300   -2.55053600
| 59> H                   2.74391700    3.98328200   -0.47098600
| 60> H                  -1.30645400    0.14043800   -4.09971100
| 61> H                  -1.47963400   -2.07398100   -5.26174100
| 62> H                  -0.14538200   -4.01087300   -4.42864900
| 63> H                   1.30440400   -3.75667100   -2.43967600
| 64> H                  -3.24324100    4.07500600   -2.07041300
| 65> H                  -4.81034500    3.86923300   -0.14545700
| 66> H                  -3.99785900    2.93551100    2.01957900
| 67> H                  -1.64311800    2.18950600    2.24656400
| 68> H                   3.85341800    3.28696200    3.95429600
| 69> H                   3.18028500    5.68270100    4.06516400
| 70> H                   1.34552500    6.52594500    2.60900500
| 71> H                   0.19513800    4.99291500    1.03600900
| 72> H                   0.10916300   -5.62372000    1.33584200
| 73> H                   2.36471300   -6.57232800    1.82367200
| 74> H                   4.40599100   -5.30467600    1.17078800
| 75> H                   4.20977500   -3.11155900    0.04303200
| 76> H                   5.83654300    1.37855800   -0.18827300
| 77> H                   6.97670900    0.40441200   -2.17779700
| 78> H                   5.85609100   -1.38007400   -3.50384500
| 79> H                   3.60629100   -2.19459500   -2.84949300
| 80> O                   0.13316500    0.63376700   -2.00107900
| 81> P                   0.59093900    2.08373300    0.45431600
| 82> P                   1.79852300   -1.42758600   -0.59831700
| 83> H                   2.68540700    1.73836900    2.39709800
| 84> H                  -0.88518100    3.35288700   -1.84504700
| 85> H                   3.57363700    0.56917800    0.46774400
| 86> H                  -0.09854200   -3.41398900    0.23217800
| 87> Cu                  0.56426300   -0.15140400    0.85571700
| 88> C                  -0.95375900   -1.64827400    2.90368500
| 89> C                  -1.25748900   -2.43960500    4.01523800
| 90> C                  -0.23772200   -2.78212500    4.89550800
| 91> C                   1.05707200   -2.33069600    4.64059100
| 92> C                   1.27572800   -1.53941400    3.51841400
| 93> H                  -2.27949900   -2.78910500    4.17195300
| 94> H                   1.88792500   -2.58370600    5.30037000
| 95> H                   2.27661600   -1.16453200    3.28178500
| 96> N                   0.29977700   -1.19524500    2.67002100
| 97> H                  -0.44942600   -3.40283300    5.76826400
| 98> C                  -1.93163300   -1.28156700    1.88784800
| 99> C                  -3.30782600   -1.37136700    1.80446200
|100> H                  -4.06154100   -1.72406100    2.50034100
|101> N                  -1.49322600   -0.72511400    0.72215600
|102> N                  -2.49176800   -0.47304000   -0.06545300
|103> N                  -3.60770300   -0.85901500    0.58462300
|104> C                  -4.88222700   -0.69022200   -0.02160800
|105> C                  -6.00534500   -1.31703700    0.51966300
|106> C                  -5.00180300    0.11520200   -1.15820800
|107> C                  -7.24840500   -1.12609400   -0.07706500
|108> H                  -5.91859900   -1.95914200    1.39765800
|109> C                  -6.25114600    0.28862800   -1.74041900
|110> H                  -4.11935900    0.60574700   -1.57034300
|111> C                  -7.40026000   -0.32376900   -1.21578800
|112> H                  -8.12387100   -1.61866700    0.35381700
|113> H                  -6.33931000    0.92444000   -2.62558700
|114> C                  -8.73198100   -0.14022600   -1.86618700
|115> H                  -8.81512500   -0.74864900   -2.78044500
|116> H                  -9.55579200   -0.43607700   -1.20470600
|117> H                  -8.89461100    0.90203700   -2.17348600
|118> *
|119> 
|120>                          ****END OF INPUT****
================================================================================

                       ****************************
                       * Single Point Calculation *
                       ****************************

---------------------------------
CARTESIAN COORDINATES (ANGSTROEM)
---------------------------------
  C      1.466887    2.367975   -1.123158
  C      1.197738    1.479727   -2.182097
  C      1.962323    1.486293   -3.347418
  C      3.004561    2.403873   -3.472330
  C      3.274633    3.310806   -2.448235
  C      2.510315    3.288107   -1.281917
  C      0.846111   -1.665251   -2.147693
  C      0.100033   -0.583420   -2.651839
  C     -0.735703   -0.724649   -3.755729
  C     -0.825487   -1.959689   -4.394597
  C     -0.081005   -3.042851   -3.927323
  C      0.741111   -2.896141   -2.811334
  C     -1.102045    2.729982    0.218632
  C     -1.564008    3.256318   -0.992944
  C     -2.892994    3.664931   -1.119897
  C     -3.769455    3.552943   -0.041380
  C     -3.314870    3.029152    1.171329
  C     -1.991959    2.614437    1.298556
  C      1.370679    3.263839    1.608550
  C      2.398356    2.794657    2.438993
  C      3.052045    3.661867    3.313341
  C      2.673998    5.003267    3.375359
  C      1.644259    5.476085    2.559897
  C      0.995691    4.613242    1.677963
  C      2.041704   -3.117772    0.045725
  C      0.894069   -3.835733    0.426419
  C      1.009554   -5.073300    1.051684
  C      2.273051   -5.604791    1.324674
  C      3.415249   -4.894697    0.960133
  C      3.304103   -3.657236    0.321788
  C      3.449901   -0.869437   -1.139917
  C      4.085161    0.135370   -0.399375
  C      5.350988    0.590226   -0.768868
  C      5.987342    0.045703   -1.883812
  C      5.358443   -0.954712   -2.629013
  C      4.094936   -1.411746   -2.261124
  H      1.744387    0.774888   -4.147272
  H      3.607755    2.406892   -4.383321
  H      4.089257    4.030753   -2.550536
  H      2.743917    3.983282   -0.470986
  H     -1.306454    0.140438   -4.099711
  H     -1.479634   -2.073981   -5.261741
  H     -0.145382   -4.010873   -4.428649
  H      1.304404   -3.756671   -2.439676
  H     -3.243241    4.075006   -2.070413
  H     -4.810345    3.869233   -0.145457
  H     -3.997859    2.935511    2.019579
  H     -1.643118    2.189506    2.246564
  H      3.853418    3.286962    3.954296
  H      3.180285    5.682701    4.065164
  H      1.345525    6.525945    2.609005
  H      0.195138    4.992915    1.036009
  H      0.109163   -5.623720    1.335842
  H      2.364713   -6.572328    1.823672
  H      4.405991   -5.304676    1.170788
  H      4.209775   -3.111559    0.043032
  H      5.836543    1.378558   -0.188273
  H      6.976709    0.404412   -2.177797
  H      5.856091   -1.380074   -3.503845
  H      3.606291   -2.194595   -2.849493
  O      0.133165    0.633767   -2.001079
  P      0.590939    2.083733    0.454316
  P      1.798523   -1.427586   -0.598317
  H      2.685407    1.738369    2.397098
  H     -0.885181    3.352887   -1.845047
  H      3.573637    0.569178    0.467744
  H     -0.098542   -3.413989    0.232178
  Cu     0.564263   -0.151404    0.855717
  C     -0.953759   -1.648274    2.903685
  C     -1.257489   -2.439605    4.015238
  C     -0.237722   -2.782125    4.895508
  C      1.057072   -2.330696    4.640591
  C      1.275728   -1.539414    3.518414
  H     -2.279499   -2.789105    4.171953
  H      1.887925   -2.583706    5.300370
  H      2.276616   -1.164532    3.281785
  N      0.299777   -1.195245    2.670021
  H     -0.449426   -3.402833    5.768264
  C     -1.931633   -1.281567    1.887848
  C     -3.307826   -1.371367    1.804462
  H     -4.061541   -1.724061    2.500341
  N     -1.493226   -0.725114    0.722156
  N     -2.491768   -0.473040   -0.065453
  N     -3.607703   -0.859015    0.584623
  C     -4.882227   -0.690222   -0.021608
  C     -6.005345   -1.317037    0.519663
  C     -5.001803    0.115202   -1.158208
  C     -7.248405   -1.126094   -0.077065
  H     -5.918599   -1.959142    1.397658
  C     -6.251146    0.288628   -1.740419
  H     -4.119359    0.605747   -1.570343
  C     -7.400260   -0.323769   -1.215788
  H     -8.123871   -1.618667    0.353817
  H     -6.339310    0.924440   -2.625587
  C     -8.731981   -0.140226   -1.866187
  H     -8.815125   -0.748649   -2.780445
  H     -9.555792   -0.436077   -1.204706
  H     -8.894611    0.902037   -2.173486

----------------------------
CARTESIAN COORDINATES (A.U.)
----------------------------
  NO LB      ZA    FRAG     MASS         X           Y           Z
   0 C     6.0000    0    12.011    2.772015    4.474824   -2.122461
   1 C     6.0000    0    12.011    2.263397    2.796279   -4.123566
   2 C     6.0000    0    12.011    3.708253    2.808687   -6.325703
   3 C     6.0000    0    12.011    5.677797    4.542662   -6.561753
   4 C     6.0000    0    12.011    6.188160    6.256517   -4.626494
   5 C     6.0000    0    12.011    4.743808    6.213622   -2.422472
   6 C     6.0000    0    12.011    1.598918   -3.146868   -4.058552
   7 C     6.0000    0    12.011    0.189035   -1.102504   -5.011249
   8 C     6.0000    0    12.011   -1.390277   -1.369388   -7.097299
   9 C     6.0000    0    12.011   -1.559944   -3.703276   -8.304585
  10 C     6.0000    0    12.011   -0.153077   -5.750155   -7.421565
  11 C     6.0000    0    12.011    1.400497   -5.472913   -5.312651
  12 C     6.0000    0    12.011   -2.082563    5.158918    0.413155
  13 C     6.0000    0    12.011   -2.955547    6.153549   -1.876392
  14 C     6.0000    0    12.011   -5.466966    6.925716   -2.116299
  15 C     6.0000    0    12.011   -7.123238    6.714089   -0.078197
  16 C     6.0000    0    12.011   -6.264196    5.724268    2.213491
  17 C     6.0000    0    12.011   -3.764257    4.940570    2.453915
  18 C     6.0000    0    12.011    2.590208    6.167762    3.039719
  19 C     6.0000    0    12.011    4.532236    5.281136    4.609029
  20 C     6.0000    0    12.011    5.767529    6.919926    6.261307
  21 C     6.0000    0    12.011    5.053124    9.454804    6.378504
  22 C     6.0000    0    12.011    3.107199   10.348301    4.837504
  23 C     6.0000    0    12.011    1.881583    8.717764    3.170891
  24 C     6.0000    0    12.011    3.858261   -5.891735    0.086408
  25 C     6.0000    0    12.011    1.689546   -7.248485    0.805815
  26 C     6.0000    0    12.011    1.907781   -9.587148    1.987395
  27 C     6.0000    0    12.011    4.295444  -10.591520    2.503271
  28 C     6.0000    0    12.011    6.453885   -9.249637    1.814388
  29 C     6.0000    0    12.011    6.243850   -6.911174    0.608091
  30 C     6.0000    0    12.011    6.519368   -1.642998   -2.154131
  31 C     6.0000    0    12.011    7.719836    0.255812   -0.754709
  32 C     6.0000    0    12.011   10.111902    1.115365   -1.452950
  33 C     6.0000    0    12.011   11.314437    0.086366   -3.559889
  34 C     6.0000    0    12.011   10.125990   -1.804144   -4.968115
  35 C     6.0000    0    12.011    7.738308   -2.667813   -4.272905
  36 H     1.0000    0     1.008    3.296414    1.464326   -7.837208
  37 H     1.0000    0     1.008    6.817669    4.548367   -8.283276
  38 H     1.0000    0     1.008    7.727576    7.617019   -4.819815
  39 H     1.0000    0     1.008    5.185252    7.527312   -0.890035
  40 H     1.0000    0     1.008   -2.468840    0.265389   -7.747331
  41 H     1.0000    0     1.008   -2.796103   -3.919256   -9.943249
  42 H     1.0000    0     1.008   -0.274732   -7.579452   -8.368934
  43 H     1.0000    0     1.008    2.464966   -7.099079   -4.610319
  44 H     1.0000    0     1.008   -6.128837    7.700645   -3.912514
  45 H     1.0000    0     1.008   -9.090235    7.311791   -0.274874
  46 H     1.0000    0     1.008   -7.554859    5.547312    3.816451
  47 H     1.0000    0     1.008   -3.105043    4.137567    4.245391
  48 H     1.0000    0     1.008    7.281905    6.211458    7.472536
  49 H     1.0000    0     1.008    6.009868   10.738749    7.682047
  50 H     1.0000    0     1.008    2.542674   12.332249    4.930305
  51 H     1.0000    0     1.008    0.368757    9.435242    1.957773
  52 H     1.0000    0     1.008    0.206288  -10.627291    2.524376
  53 H     1.0000    0     1.008    4.468660  -12.419900    3.446241
  54 H     1.0000    0     1.008    8.326116  -10.024385    2.212469
  55 H     1.0000    0     1.008    7.955322   -5.879994    0.081319
  56 H     1.0000    0     1.008   11.029468    2.605097   -0.355784
  57 H     1.0000    0     1.008   13.184069    0.764228   -4.115440
  58 H     1.0000    0     1.008   11.066408   -2.607962   -6.621307
  59 H     1.0000    0     1.008    6.814902   -4.147184   -5.384761
  60 O     8.0000    0    15.999    0.251645    1.197646   -3.781491
  61 P    15.0000    0    30.974    1.116713    3.937685    0.858533
  62 P    15.0000    0    30.974    3.398716   -2.697747   -1.130655
  63 H     1.0000    0     1.008    5.074684    3.285041    4.529859
  64 H     1.0000    0     1.008   -1.672750    6.336038   -3.486634
  65 H     1.0000    0     1.008    6.753195    1.075591    0.883908
  66 H     1.0000    0     1.008   -0.186217   -6.451504    0.438753
  67 Cu   29.0000    0    63.550    1.066303   -0.286112    1.617071
  68 C     6.0000    0    12.011   -1.802343   -3.114786    5.487169
  69 C     6.0000    0    12.011   -2.376310   -4.610185    7.587700
  70 C     6.0000    0    12.011   -0.449229   -5.257454    9.251169
  71 C     6.0000    0    12.011    1.997577   -4.404377    8.769446
  72 C     6.0000    0    12.011    2.410777   -2.909071    6.648839
  73 H     1.0000    0     1.008   -4.307629   -5.270645    7.883849
  74 H     1.0000    0     1.008    3.567661   -4.882497   10.016248
  75 H     1.0000    0     1.008    4.302181   -2.200647    6.201675
  76 N     7.0000    0    14.007    0.566496   -2.258686    5.045608
  77 H     1.0000    0     1.008   -0.849292   -6.430422   10.900439
  78 C     6.0000    0    12.011   -3.650257   -2.421811    3.567516
  79 C     6.0000    0    12.011   -6.250885   -2.591508    3.409939
  80 H     1.0000    0     1.008   -7.675200   -3.258003    4.724960
  81 N     7.0000    0    14.007   -2.821788   -1.370267    1.364677
  82 N     7.0000    0    14.007   -4.708759   -0.893916   -0.123688
  83 N     7.0000    0    14.007   -6.817571   -1.623303    1.104777
  84 C     6.0000    0    12.011   -9.226072   -1.304331   -0.040833
  85 C     6.0000    0    12.011  -11.348457   -2.488839    0.982021
  86 C     6.0000    0    12.011   -9.452038    0.217700   -2.188696
  87 C     6.0000    0    12.011  -13.697500   -2.128009   -0.145632
  88 H     1.0000    0     1.008  -11.184531   -3.702242    2.641191
  89 C     6.0000    0    12.011  -11.812954    0.545428   -3.288915
  90 H     1.0000    0     1.008   -7.784460    1.144696   -2.967518
  91 C     6.0000    0    12.011  -13.984465   -0.611835   -2.297506
  92 H     1.0000    0     1.008  -15.351891   -3.058837    0.668617
  93 H     1.0000    0     1.008  -11.979560    1.746938   -4.961640
  94 C     6.0000    0    12.011  -16.501053   -0.264989   -3.526582
  95 H     1.0000    0     1.008  -16.658172   -1.414742   -5.254280
  96 H     1.0000    0     1.008  -18.057830   -0.824066   -2.276564
  97 H     1.0000    0     1.008  -16.808379    1.704603   -4.107293

--------------------------------
INTERNAL COORDINATES (ANGSTROEM)
--------------------------------
 C      0   0   0     0.000000000000     0.00000000     0.00000000
 C      1   0   0     1.408111323520     0.00000000     0.00000000
 C      2   1   0     1.393774145126   121.39509119     0.00000000
 C      3   2   1     1.394208059361   119.21528953   359.17749642
 C      4   3   2     1.394358964076   120.46829974   359.58209261
 C      5   4   3     1.394630749284   119.83360649     0.94993817
 C      2   1   3     3.164760939286   129.78636276   128.47253469
 C      7   2   1     1.407534683040    44.86298418   128.76660077
 C      8   7   2     1.391751926256   121.62759905   152.05943505
 C      9   8   7     1.393390573271   119.49201671   359.02235853
 C     10   9   8     1.394933101494   120.01824958     0.00000000
 C     11  10   9     1.393854364587   120.08325483     0.78112849
 C      1   2   3     2.920763785857   104.80595165   152.63152099
 C     13   1   2     1.399412663242    86.51594362   298.56336903
 C     14  13   1     1.396168126041   120.20051586   178.29100714
 C     15  14  13     1.394246791624   120.30029748     0.04897891
 C     16  15  14     1.397020992178   119.80534359     0.00000000
 C     17  16  15     1.392217208152   120.01396372   359.67476362
 C      1   2   3     2.876466040652   154.72269655   201.19177253
 C     19   1   2     1.402101045468   115.70543998    87.35017359
 C     20  19   1     1.394219106857   120.46067470   135.47426538
 C     21  20  19     1.395033951749   119.92805440     0.68920242
 C     22  21  20     1.396029205529   119.97284067   359.84544428
 C     23  22  21     1.393896005314   120.20801945   359.68985156
 C      7   2   1     2.889695900923   117.50299668   337.20218840
 C     25   7   2     1.406222604136    97.14985657   128.13832469
 C     26  25   7     1.391353723874   120.53396255   152.68182250
 C     27  26  25     1.397651920970   120.06968938     0.94664257
 C     28  27  26     1.393463275699   119.74388276   359.56812803
 C     29  28  27     1.396834814451   120.38302126   359.87597173
 C      7   2   1     2.903214555088    68.39069164   301.16503269
 C     31   7   2     1.400569465829   141.90513505    35.36534344
 C     32  31   7     1.394896788911   120.36375605   219.03517593
 C     33  32  31     1.394471883539   119.90570557     0.19935705
 C     34  33  32     1.397021350884   120.04587376   359.94745973
 C     35  34  33     1.393080160122   120.15681794     0.00000000
 H      3   2   1     1.092409994204   119.97821441   178.90778345
 H      4   3   2     1.092591743552   119.28961450   179.70860270
 H      5   4   3     1.091971354380   120.29961208   180.22819101
 H      6   5   4     1.093365109097   119.52633803   178.33709637
 H      9   8   7     1.091996262766   118.90229769   179.02950228
 H     10   9   8     1.092204044860   119.69374032   180.05502015
 H     11  10   9     1.092034225145   120.20360560   180.29583494
 H     12  11  10     1.093590670092   119.54344778   178.69664909
 H     15  14  13     1.092847259634   119.60217793   179.97173385
 H     16  15  14     1.092851031993   120.12069335   180.29349992
 H     17  16  15     1.093055658922   120.16222845   180.21226401
 H     18  17  16     1.095890307515   119.80351742   180.95767133
 H     21  20  19     1.092508927277   119.89349729   180.16910254
 H     22  21  20     1.092606070251   120.02871815   179.55751989
 H     23  22  21     1.092638832378   120.05584508   179.86040153
 H     24  23  22     1.094139676117   119.79274991   180.50704281
 H     27  26  25     1.092891530869   119.76422986   180.43109142
 H     28  27  26     1.092487424466   120.12203526   179.45023087
 H     29  28  27     1.092715891726   120.10336854   179.99589051
 H     30  29  28     1.093485284514   119.51715146   179.92842781
 H     33  32  31     1.092850197545   119.84707920   179.65956476
 H     34  33  32     1.092678538087   120.00800738   179.68262577
 H     35  34  33     1.092665269500   120.05443085   179.87766279
 H     36  35  34     1.094442585514   119.84465954   179.90530623
 O      2   1   3     1.371762191582   115.98379671   181.01120940
 P     19   1   2     1.825623390952    38.05114789   343.84954019
 P     25   7   2     1.825008441383    37.95264883     1.81185304
 H     20  19   1     1.095398469312   119.47866947   315.43685053
 H     14  13   1     1.093714400700   120.18792648   358.09936064
 H     32  31   7     1.096239729074   119.37287619    38.38236278
 H     26  25   7     1.095844042251   119.65339133   332.42692162
 Cu    62  19   1     2.271050809768   121.96902350   122.20276862
 C     68  62  19     2.956211007085   128.81563123    70.26114424
 C     69  68  62     1.397857909900   161.64016263   244.58250011
 C     70  69  68     1.390007178970   118.92513794     9.01885428
 C     71  70  69     1.394726611693   119.04996246   359.75691582
 C     72  71  70     1.390402412681   118.53574170     0.70590444
 H     70  69  68     1.091427634488   119.92855820   189.87495586
 H     72  71  70     1.090705779094   121.43529616   180.56034964
 H     73  72  71     1.094671907975   120.87366710   180.01502471
 N     73  72  71     1.338171639742   122.91303984   359.78906588
 H     71  70  69     1.091695946872   120.27262626   180.27117180
 C     69  68  62     1.456927038082    74.58434856    74.83861442
 C     79  69  68     1.381638316726   133.96873707   187.96747676
 H     80  79  69     1.084770455673   132.41475205     1.96525175
 N     79  69  68     1.364066889020   118.86879192     8.34814884
 N     82  79  69     1.296516627013   110.54340985   179.51204888
 N     83  82  79     1.347919296778   106.79644147     0.31299993
 C     84  83  82     1.421414270642   120.17501807   179.09858346
 C     85  84  83     1.395444510394   120.19201749   167.40578844
 C     85  84  83     1.398165154605   119.45912695   346.99279351
 C     86  85  84     1.392027908784   119.39479134   179.15474527
 H     86  85  84     1.091191513698   120.82637686   358.66870627
 C     87  85  84     1.389209904099   119.30894469   180.63096990
 H     87  85  84     1.090503126261   119.81179297     0.04453921
 C     88  86  85     1.401240670755   121.57937743     0.36323502
 H     88  86  85     1.093036218709   118.97538890   180.12639752
 H     90  87  85     1.093413086836   118.97204430   179.63893087
 C     92  88  86     1.493381302244   121.39538557   178.95571893
 H     95  92  88     1.101344252370   111.15933982   257.04710805
 H     95  92  88     1.097155181040   111.95385885    16.84162844
 H     95  92  88     1.098723510930   111.73982365   138.46757382

---------------------------
INTERNAL COORDINATES (A.U.)
---------------------------
 C      0   0   0     0.000000000000     0.00000000     0.00000000
 C      1   0   0     2.660944767527     0.00000000     0.00000000
 C      2   1   0     2.633851426829   121.39509119     0.00000000
 C      3   2   1     2.634671405899   119.21528953   359.17749642
 C      4   3   2     2.634956574481   120.46829974   359.58209261
 C      5   4   3     2.635470174093   119.83360649     0.94993817
 C      2   1   3     5.980531454582   129.78636276   128.47253469
 C      7   2   1     2.659855074942    44.86298418   128.76660077
 C      8   7   2     2.630029986981   121.62759905   152.05943505
 C      9   8   7     2.633126581069   119.49201671   359.02235853
 C     10   9   8     2.636041536965   120.01824958     0.00000000
 C     11  10   9     2.634003019639   120.08325483     0.78112849
 C      1   2   3     5.519443657145   104.80595165   152.63152099
 C     13   1   2     2.644506681868    86.51594362   298.56336903
 C     14  13   1     2.638375395128   120.20051586   178.29100714
 C     15  14  13     2.634744599268   120.30029748     0.04897891
 C     16  15  14     2.639987078556   119.80534359     0.00000000
 C     17  16  15     2.630909242340   120.01396372   359.67476362
 C      1   2   3     5.435733050357   154.72269655   201.19177253
 C     19   1   2     2.649586988019   115.70543998    87.35017359
 C     20  19   1     2.634692282640   120.46067470   135.47426538
 C     21  20  19     2.636232116328   119.92805440     0.68920242
 C     22  21  20     2.638112873405   119.97284067   359.84544428
 C     23  22  21     2.634081709209   120.20801945   359.68985156
 C      7   2   1     5.460733863060   117.50299668   337.20218840
 C     25   7   2     2.657375605146    97.14985657   128.13832469
 C     26  25   7     2.629277493534   120.53396255   152.68182250
 C     27  26  25     2.641179361181   120.06968938     0.94664257
 C     28  27  26     2.633263968747   119.74388276   359.56812803
 C     29  28  27     2.639635253639   120.38302126   359.87597173
 C      7   2   1     5.486280417129    68.39069164   301.16503269
 C     31   7   2     2.646692721950   141.90513505    35.36534344
 C     32  31   7     2.635972916128   120.36375605   219.03517593
 C     33  32  31     2.635169961342   119.90570557     0.19935705
 C     34  33  32     2.639987756412   120.04587376   359.94745973
 C     35  34  33     2.632539985230   120.15681794     0.00000000
 H      3   2   1     2.064355715004   119.97821441   178.90778345
 H      4   3   2     2.064699171497   119.28961450   179.70860270
 H      5   4   3     2.063526805865   120.29961208   180.22819101
 H      6   5   4     2.066160620578   119.52633803   178.33709637
 H      9   8   7     2.063573875892   118.90229769   179.02950228
 H     10   9   8     2.063966527147   119.69374032   180.05502015
 H     11  10   9     2.063645614394   120.20360560   180.29583494
 H     12  11  10     2.066586869086   119.54344778   178.69664909
 H     15  14  13     2.065182026915   119.60217793   179.97173385
 H     16  15  14     2.065189155641   120.12069335   180.29349992
 H     17  16  15     2.065575844496   120.16222845   180.21226401
 H     18  17  16     2.070932554023   119.80351742   180.95767133
 H     21  20  19     2.064542671417   119.89349729   180.16910254
 H     22  21  20     2.064726245035   120.02871815   179.55751989
 H     23  22  21     2.064788156482   120.05584508   179.86040153
 H     24  23  22     2.067624340119   119.79274991   180.50704281
 H     27  26  25     2.065265687424   119.76422986   180.43109142
 H     28  27  26     2.064502036994   120.12203526   179.45023087
 H     29  28  27     2.064933777545   120.10336854   179.99589051
 H     30  29  28     2.066387719205   119.51715146   179.92842781
 H     33  32  31     2.065187578762   119.84707920   179.65956476
 H     34  33  32     2.064863189397   120.00800738   179.68262577
 H     35  34  33     2.064838115403   120.05443085   179.87766279
 H     36  35  34     2.068196755923   119.84465954   179.90530623
 O      2   1   3     2.592254862957   115.98379671   181.01120940
 P     19   1   2     3.449928232580    38.05114789   343.84954019
 P     25   7   2     3.448766146309    37.95264883     1.81185304
 H     20  19   1     2.070003114515   119.47866947   315.43685053
 H     14  13   1     2.066820686049   120.18792648   358.09936064
 H     32  31   7     2.071592865075   119.37287619    38.38236278
 H     26  25   7     2.070845125344   119.65339133   332.42692162
 Cu    62  19   1     4.291664066681   121.96902350   122.20276862
 C     68  62  19     5.586429197473   128.81563123    70.26114424
 C     69  68  62     2.641568623847   161.64016263   244.58250011
 C     70  69  68     2.626732892438   118.92513794     9.01885428
 C     71  70  69     2.635651327793   119.04996246   359.75691582
 C     72  71  70     2.627479775910   118.53574170     0.70590444
 H     70  69  68     2.062499324177   119.92855820   189.87495586
 H     72  71  70     2.061135215174   121.43529616   180.56034964
 H     73  72  71     2.068630112569   120.87366710   180.01502471
 N     73  72  71     2.528777919294   122.91303984   359.78906588
 H     71  70  69     2.063006361099   120.27262626   180.27117180
 C     69  68  62     2.753193099080    74.58434856    74.83861442
 C     79  69  68     2.610918034744   133.96873707   187.96747676
 H     80  79  69     2.049919079392   132.41475205     1.96525175
 N     79  69  68     2.577712848599   118.86879192     8.34814884
 N     82  79  69     2.450061353130   110.54340985   179.51204888
 N     83  82  79     2.547198321538   106.79644147     0.31299993
 C     84  83  82     2.686083694362   120.17501807   179.09858346
 C     85  84  83     2.637007959729   120.19201749   167.40578844
 C     85  84  83     2.642149232195   119.45912695   346.99279351
 C     86  85  84     2.630551518376   119.39479134   179.15474527
 H     86  85  84     2.062053120548   120.82637686   358.66870627
 C     87  85  84     2.625226261278   119.30894469   180.63096990
 H     87  85  84     2.060752256819   119.81179297     0.04453921
 C     88  86  85     2.647961115440   121.57937743     0.36323502
 H     88  86  85     2.065539107816   118.97538890   180.12639752
 H     90  87  85     2.066251285365   118.97204430   179.63893087
 C     92  88  86     2.822081674759   121.39538557   178.95571893
 H     95  92  88     2.081239016148   111.15933982   257.04710805
 H     95  92  88     2.073322818578   111.95385885    16.84162844
 H     95  92  88     2.076286532558   111.73982365   138.46757382

---------------------
BASIS SET INFORMATION
---------------------
There are 6 groups of distinct atoms

 Group   1 Type C   : 7s4p1d contracted to 3s2p1d pattern {511/31/1}
 Group   2 Type H   : 4s1p contracted to 2s1p pattern {31/1}
 Group   3 Type O   : 7s4p1d contracted to 3s2p1d pattern {511/31/1}
 Group   4 Type P   : 10s7p1d contracted to 4s3p1d pattern {5311/511/1}
 Group   5 Type Cu  : 14s9p5d1f contracted to 5s3p2d1f pattern {63311/531/41/1}
 Group   6 Type N   : 7s4p1d contracted to 3s2p1d pattern {511/31/1}

Atom   0C    basis set group =>   1
Atom   1C    basis set group =>   1
Atom   2C    basis set group =>   1
Atom   3C    basis set group =>   1
Atom   4C    basis set group =>   1
Atom   5C    basis set group =>   1
Atom   6C    basis set group =>   1
Atom   7C    basis set group =>   1
Atom   8C    basis set group =>   1
Atom   9C    basis set group =>   1
Atom  10C    basis set group =>   1
Atom  11C    basis set group =>   1
Atom  12C    basis set group =>   1
Atom  13C    basis set group =>   1
Atom  14C    basis set group =>   1
Atom  15C    basis set group =>   1
Atom  16C    basis set group =>   1
Atom  17C    basis set group =>   1
Atom  18C    basis set group =>   1
Atom  19C    basis set group =>   1
Atom  20C    basis set group =>   1
Atom  21C    basis set group =>   1
Atom  22C    basis set group =>   1
Atom  23C    basis set group =>   1
Atom  24C    basis set group =>   1
Atom  25C    basis set group =>   1
Atom  26C    basis set group =>   1
Atom  27C    basis set group =>   1
Atom  28C    basis set group =>   1
Atom  29C    basis set group =>   1
Atom  30C    basis set group =>   1
Atom  31C    basis set group =>   1
Atom  32C    basis set group =>   1
Atom  33C    basis set group =>   1
Atom  34C    basis set group =>   1
Atom  35C    basis set group =>   1
Atom  36H    basis set group =>   2
Atom  37H    basis set group =>   2
Atom  38H    basis set group =>   2
Atom  39H    basis set group =>   2
Atom  40H    basis set group =>   2
Atom  41H    basis set group =>   2
Atom  42H    basis set group =>   2
Atom  43H    basis set group =>   2
Atom  44H    basis set group =>   2
Atom  45H    basis set group =>   2
Atom  46H    basis set group =>   2
Atom  47H    basis set group =>   2
Atom  48H    basis set group =>   2
Atom  49H    basis set group =>   2
Atom  50H    basis set group =>   2
Atom  51H    basis set group =>   2
Atom  52H    basis set group =>   2
Atom  53H    basis set group =>   2
Atom  54H    basis set group =>   2
Atom  55H    basis set group =>   2
Atom  56H    basis set group =>   2
Atom  57H    basis set group =>   2
Atom  58H    basis set group =>   2
Atom  59H    basis set group =>   2
Atom  60O    basis set group =>   3
Atom  61P    basis set group =>   4
Atom  62P    basis set group =>   4
Atom  63H    basis set group =>   2
Atom  64H    basis set group =>   2
Atom  65H    basis set group =>   2
Atom  66H    basis set group =>   2
Atom  67Cu   basis set group =>   5
Atom  68C    basis set group =>   1
Atom  69C    basis set group =>   1
Atom  70C    basis set group =>   1
Atom  71C    basis set group =>   1
Atom  72C    basis set group =>   1
Atom  73H    basis set group =>   2
Atom  74H    basis set group =>   2
Atom  75H    basis set group =>   2
Atom  76N    basis set group =>   6
Atom  77H    basis set group =>   2
Atom  78C    basis set group =>   1
Atom  79C    basis set group =>   1
Atom  80H    basis set group =>   2
Atom  81N    basis set group =>   6
Atom  82N    basis set group =>   6
Atom  83N    basis set group =>   6
Atom  84C    basis set group =>   1
Atom  85C    basis set group =>   1
Atom  86C    basis set group =>   1
Atom  87C    basis set group =>   1
Atom  88H    basis set group =>   2
Atom  89C    basis set group =>   1
Atom  90H    basis set group =>   2
Atom  91C    basis set group =>   1
Atom  92H    basis set group =>   2
Atom  93H    basis set group =>   2
Atom  94C    basis set group =>   1
Atom  95H    basis set group =>   2
Atom  96H    basis set group =>   2
Atom  97H    basis set group =>   2
---------------------------------
AUXILIARY/J BASIS SET INFORMATION
---------------------------------
There are 6 groups of distinct atoms

 Group   1 Type C   : 12s5p4d2f1g contracted to 6s4p3d1f1g pattern {711111/2111/211/2/1}
 Group   2 Type H   : 5s2p1d contracted to 3s1p1d pattern {311/2/1}
 Group   3 Type O   : 12s5p4d2f1g contracted to 6s4p3d1f1g pattern {711111/2111/211/2/1}
 Group   4 Type P   : 14s5p5d2f1g contracted to 8s4p3d1f1g pattern {71111111/2111/311/2/1}
 Group   5 Type Cu  : 19s5p5d3f3g contracted to 8s5p4d3f3g pattern {121111111/11111/2111/111/111}
 Group   6 Type N   : 12s5p4d2f1g contracted to 6s4p3d1f1g pattern {711111/2111/211/2/1}

Atom   0C    basis set group =>   1
Atom   1C    basis set group =>   1
Atom   2C    basis set group =>   1
Atom   3C    basis set group =>   1
Atom   4C    basis set group =>   1
Atom   5C    basis set group =>   1
Atom   6C    basis set group =>   1
Atom   7C    basis set group =>   1
Atom   8C    basis set group =>   1
Atom   9C    basis set group =>   1
Atom  10C    basis set group =>   1
Atom  11C    basis set group =>   1
Atom  12C    basis set group =>   1
Atom  13C    basis set group =>   1
Atom  14C    basis set group =>   1
Atom  15C    basis set group =>   1
Atom  16C    basis set group =>   1
Atom  17C    basis set group =>   1
Atom  18C    basis set group =>   1
Atom  19C    basis set group =>   1
Atom  20C    basis set group =>   1
Atom  21C    basis set group =>   1
Atom  22C    basis set group =>   1
Atom  23C    basis set group =>   1
Atom  24C    basis set group =>   1
Atom  25C    basis set group =>   1
Atom  26C    basis set group =>   1
Atom  27C    basis set group =>   1
Atom  28C    basis set group =>   1
Atom  29C    basis set group =>   1
Atom  30C    basis set group =>   1
Atom  31C    basis set group =>   1
Atom  32C    basis set group =>   1
Atom  33C    basis set group =>   1
Atom  34C    basis set group =>   1
Atom  35C    basis set group =>   1
Atom  36H    basis set group =>   2
Atom  37H    basis set group =>   2
Atom  38H    basis set group =>   2
Atom  39H    basis set group =>   2
Atom  40H    basis set group =>   2
Atom  41H    basis set group =>   2
Atom  42H    basis set group =>   2
Atom  43H    basis set group =>   2
Atom  44H    basis set group =>   2
Atom  45H    basis set group =>   2
Atom  46H    basis set group =>   2
Atom  47H    basis set group =>   2
Atom  48H    basis set group =>   2
Atom  49H    basis set group =>   2
Atom  50H    basis set group =>   2
Atom  51H    basis set group =>   2
Atom  52H    basis set group =>   2
Atom  53H    basis set group =>   2
Atom  54H    basis set group =>   2
Atom  55H    basis set group =>   2
Atom  56H    basis set group =>   2
Atom  57H    basis set group =>   2
Atom  58H    basis set group =>   2
Atom  59H    basis set group =>   2
Atom  60O    basis set group =>   3
Atom  61P    basis set group =>   4
Atom  62P    basis set group =>   4
Atom  63H    basis set group =>   2
Atom  64H    basis set group =>   2
Atom  65H    basis set group =>   2
Atom  66H    basis set group =>   2
Atom  67Cu   basis set group =>   5
Atom  68C    basis set group =>   1
Atom  69C    basis set group =>   1
Atom  70C    basis set group =>   1
Atom  71C    basis set group =>   1
Atom  72C    basis set group =>   1
Atom  73H    basis set group =>   2
Atom  74H    basis set group =>   2
Atom  75H    basis set group =>   2
Atom  76N    basis set group =>   6
Atom  77H    basis set group =>   2
Atom  78C    basis set group =>   1
Atom  79C    basis set group =>   1
Atom  80H    basis set group =>   2
Atom  81N    basis set group =>   6
Atom  82N    basis set group =>   6
Atom  83N    basis set group =>   6
Atom  84C    basis set group =>   1
Atom  85C    basis set group =>   1
Atom  86C    basis set group =>   1
Atom  87C    basis set group =>   1
Atom  88H    basis set group =>   2
Atom  89C    basis set group =>   1
Atom  90H    basis set group =>   2
Atom  91C    basis set group =>   1
Atom  92H    basis set group =>   2
Atom  93H    basis set group =>   2
Atom  94C    basis set group =>   1
Atom  95H    basis set group =>   2
Atom  96H    basis set group =>   2
Atom  97H    basis set group =>   2
---------------------------------
AUXILIARY/C BASIS SET INFORMATION
---------------------------------
There are 6 groups of distinct atoms

 Group   1 Type C   : 8s6p5d3f contracted to 6s5p4d1f pattern {311111/21111/2111/3}
 Group   2 Type H   : 4s3p2d contracted to 3s2p1d pattern {211/21/2}
 Group   3 Type O   : 8s6p5d3f contracted to 6s5p4d1f pattern {311111/21111/2111/3}
 Group   4 Type P   : 10s7p7d3f contracted to 8s5p5d2f pattern {31111111/31111/31111/12}
 Group   5 Type Cu  : 9s9p6d4f3g2h contracted to 9s9p6d4f3g2h pattern {111111111/111111111/111111/1111/111/11}
 Group   6 Type N   : 8s6p5d3f contracted to 6s5p4d1f pattern {311111/21111/2111/3}

Atom   0C    basis set group =>   1
Atom   1C    basis set group =>   1
Atom   2C    basis set group =>   1
Atom   3C    basis set group =>   1
Atom   4C    basis set group =>   1
Atom   5C    basis set group =>   1
Atom   6C    basis set group =>   1
Atom   7C    basis set group =>   1
Atom   8C    basis set group =>   1
Atom   9C    basis set group =>   1
Atom  10C    basis set group =>   1
Atom  11C    basis set group =>   1
Atom  12C    basis set group =>   1
Atom  13C    basis set group =>   1
Atom  14C    basis set group =>   1
Atom  15C    basis set group =>   1
Atom  16C    basis set group =>   1
Atom  17C    basis set group =>   1
Atom  18C    basis set group =>   1
Atom  19C    basis set group =>   1
Atom  20C    basis set group =>   1
Atom  21C    basis set group =>   1
Atom  22C    basis set group =>   1
Atom  23C    basis set group =>   1
Atom  24C    basis set group =>   1
Atom  25C    basis set group =>   1
Atom  26C    basis set group =>   1
Atom  27C    basis set group =>   1
Atom  28C    basis set group =>   1
Atom  29C    basis set group =>   1
Atom  30C    basis set group =>   1
Atom  31C    basis set group =>   1
Atom  32C    basis set group =>   1
Atom  33C    basis set group =>   1
Atom  34C    basis set group =>   1
Atom  35C    basis set group =>   1
Atom  36H    basis set group =>   2
Atom  37H    basis set group =>   2
Atom  38H    basis set group =>   2
Atom  39H    basis set group =>   2
Atom  40H    basis set group =>   2
Atom  41H    basis set group =>   2
Atom  42H    basis set group =>   2
Atom  43H    basis set group =>   2
Atom  44H    basis set group =>   2
Atom  45H    basis set group =>   2
Atom  46H    basis set group =>   2
Atom  47H    basis set group =>   2
Atom  48H    basis set group =>   2
Atom  49H    basis set group =>   2
Atom  50H    basis set group =>   2
Atom  51H    basis set group =>   2
Atom  52H    basis set group =>   2
Atom  53H    basis set group =>   2
Atom  54H    basis set group =>   2
Atom  55H    basis set group =>   2
Atom  56H    basis set group =>   2
Atom  57H    basis set group =>   2
Atom  58H    basis set group =>   2
Atom  59H    basis set group =>   2
Atom  60O    basis set group =>   3
Atom  61P    basis set group =>   4
Atom  62P    basis set group =>   4
Atom  63H    basis set group =>   2
Atom  64H    basis set group =>   2
Atom  65H    basis set group =>   2
Atom  66H    basis set group =>   2
Atom  67Cu   basis set group =>   5
Atom  68C    basis set group =>   1
Atom  69C    basis set group =>   1
Atom  70C    basis set group =>   1
Atom  71C    basis set group =>   1
Atom  72C    basis set group =>   1
Atom  73H    basis set group =>   2
Atom  74H    basis set group =>   2
Atom  75H    basis set group =>   2
Atom  76N    basis set group =>   6
Atom  77H    basis set group =>   2
Atom  78C    basis set group =>   1
Atom  79C    basis set group =>   1
Atom  80H    basis set group =>   2
Atom  81N    basis set group =>   6
Atom  82N    basis set group =>   6
Atom  83N    basis set group =>   6
Atom  84C    basis set group =>   1
Atom  85C    basis set group =>   1
Atom  86C    basis set group =>   1
Atom  87C    basis set group =>   1
Atom  88H    basis set group =>   2
Atom  89C    basis set group =>   1
Atom  90H    basis set group =>   2
Atom  91C    basis set group =>   1
Atom  92H    basis set group =>   2
Atom  93H    basis set group =>   2
Atom  94C    basis set group =>   1
Atom  95H    basis set group =>   2
Atom  96H    basis set group =>   2
Atom  97H    basis set group =>   2


           ************************************************************
           *        Program running with 8 parallel MPI-processes     *
           *              working on a common directory               *
           ************************************************************
------------------------------------------------------------------------------
                           ORCA GTO INTEGRAL CALCULATION
                           -- RI-GTO INTEGRALS CHOSEN --
------------------------------------------------------------------------------
------------------------------------------------------------------------------
                   ___                                                        
                  /   \      - P O W E R E D   B Y -                         
                 /     \                                                     
                 |  |  |   _    _      __       _____    __    __             
                 |  |  |  | |  | |    /  \     |  _  \  |  |  /  |          
                  \  \/   | |  | |   /    \    | | | |  |  | /  /          
                 / \  \   | |__| |  /  /\  \   | |_| |  |  |/  /          
                |  |  |   |  __  | /  /__\  \  |    /   |      \           
                |  |  |   | |  | | |   __   |  |    \   |  |\   \          
                \     /   | |  | | |  |  |  |  | |\  \  |  | \   \       
                 \___/    |_|  |_| |__|  |__|  |_| \__\ |__|  \__/        
                                                                              
                      - O R C A' S   B I G   F R I E N D -                    
                                      &                                       
                       - I N T E G R A L  F E E D E R -                       
                                                                              
 v1 FN, 2020, v2 2021                                                         
------------------------------------------------------------------------------


Reading SHARK input file Cu50_DPEPhos-pytri.SHARKINP.tmp ... ok
----------------------
SHARK INTEGRAL PACKAGE
----------------------

Number of atoms                             ...     98
Number of basis functions                   ...   1037
Number of shells                            ...    477
Maximum angular momentum                    ...      3
Integral batch strategy                     ... SHARK/LIBINT Hybrid
RI-J (if used) integral strategy            ... SPLIT-RIJ (Revised 2003 algorithm where possible)
Printlevel                                  ...      1
Contraction scheme used                     ... SEGMENTED contraction
Coulomb Range Separation                    ... NOT USED
Exchange Range Separation                   ... NOT USED
Finite Nucleus Model                        ... NOT USED
Auxiliary Coulomb fitting basis             ... AVAILABLE
   # of basis functions in Aux-J            ...   3328
   # of shells in Aux-J                     ...   1082
   Maximum angular momentum in Aux-J        ...      4
Auxiliary J/K fitting basis                 ... NOT available
Auxiliary Correlation fitting basis         ... AVAILABLE
   # of basis functions in Aux-C            ...   3467
   # of shells in Aux-C                     ...   1193
   Maximum angular momentum in Aux-C        ...      5
Auxiliary 'external' fitting basis          ... NOT available
Integral threshold                          ...     2.500000e-11
Primitive cut-off                           ...     2.500000e-12
Primitive pair pre-selection threshold      ...     2.500000e-12

Calculating pre-screening integrals         ... done (  0.2 sec) Dimension = 477
Organizing shell pair data                  ... done (  0.8 sec)
Shell pair information
Total number of shell pairs                 ...    114003
Shell pairs after pre-screening             ...     60823
Total number of primitive shell pairs       ...    429196
Primitive shell pairs kept                  ...    128158
          la=0 lb=0:  18465 shell pairs
          la=1 lb=0:  22934 shell pairs
          la=1 lb=1:   7237 shell pairs
          la=2 lb=0:   6988 shell pairs
          la=2 lb=1:   4373 shell pairs
          la=2 lb=2:    576 shell pairs
          la=3 lb=0:    137 shell pairs
          la=3 lb=1:     89 shell pairs
          la=3 lb=2:     23 shell pairs
          la=3 lb=3:      1 shell pairs

Calculating one electron integrals          ... done (  0.2 sec)
Calculating RI/J V-Matrix + Cholesky decomp.... done (  0.7 sec)
Calculating RI/C V-Matrix + Cholesky decomp.... done (  0.8 sec)
Calculating Nuclear repulsion               ... done (  0.0 sec) ENN=   9999.711642197473 Eh

SHARK setup successfully completed in   3.5 seconds

Maximum memory used throughout the entire GTOINT-calculation: 111.7 MB


           ************************************************************
           *        Program running with 8 parallel MPI-processes     *
           *              working on a common directory               *
           ************************************************************
-------------------------------------------------------------------------------
                                 ORCA SCF
-------------------------------------------------------------------------------

------------
SCF SETTINGS
------------
Hamiltonian:
 Density Functional     Method          .... DFT(GTOs)
 Exchange Functional    Exchange        .... PBE
   PBE kappa parameter   XKappa         ....  0.804000
   PBE mue parameter    XMuePBE         ....  0.219520
 Correlation Functional Correlation     .... PBE
   PBE beta parameter  CBetaPBE         ....  0.066725
 LDA part of GGA corr.  LDAOpt          .... PW91-LDA
 Gradients option       PostSCFGGA      .... off
 Hybrid DFT is turned on
   Fraction HF Exchange ScalHFX         ....  0.690000
   Scaling of DF-GGA-X  ScalDFX         ....  0.310000
   Scaling of DF-GGA-C  ScalDFC         ....  0.670000
   Scaling of DF-LDA-C  ScalLDAC        ....  0.670000
   Perturbative correction              ....  0.330000
   Density functional embedding theory  .... OFF
 RI-approximation to the Coulomb term is turned on
   Number of AuxJ basis functions       .... 3328
   RIJ-COSX (HFX calculated with COS-X)).... on


General Settings:
 Integral files         IntName         .... Cu50_DPEPhos-pytri
 Hartree-Fock type      HFTyp           .... RHF
 Total Charge           Charge          ....    1
 Multiplicity           Mult            ....    1
 Number of Electrons    NEL             ....  434
 Basis Dimension        Dim             .... 1037
 Nuclear Repulsion      ENuc            ....   9999.7116421975 Eh

Convergence Acceleration:
 DIIS                   CNVDIIS         .... on
   Start iteration      DIISMaxIt       ....    12
   Startup error        DIISStart       ....  0.200000
   # of expansion vecs  DIISMaxEq       ....     5
   Bias factor          DIISBfac        ....   1.050
   Max. coefficient     DIISMaxC        ....  10.000
 Trust-Rad. Augm. Hess. CNVTRAH         .... auto
   Auto Start mean grad. ratio tolernc. ....  1.125000
   Auto Start start iteration           ....    20
   Auto Start num. interpolation iter.  ....    10
   Max. Number of Micro iterations      ....    16
   Max. Number of Macro iterations      .... Maxiter - #DIIS iter
   Number of Davidson start vectors     ....     2
   Converg. threshold I  (grad. norm)   ....   1.000e-05
   Converg. threshold II (energy diff.) ....   1.000e-08
   Grad. Scal. Fac. for Micro threshold ....   0.100
   Minimum threshold for Micro iter.    ....   0.010
   NR start threshold (gradient norm)   ....   0.001
   Initial trust radius                 ....   0.400
   Minimum AH scaling param. (alpha)    ....   1.000
   Maximum AH scaling param. (alpha)    .... 1000.000
   Orbital update algorithm             .... Taylor
   White noise on init. David. guess    .... on
   Maximum white noise                  ....   0.010
   Quad. conv. algorithm                .... NR
 SOSCF                  CNVSOSCF        .... off
 Level Shifting         CNVShift        .... on
   Level shift para.    LevelShift      ....    0.2500
   Turn off err/grad.   ShiftErr        ....    0.0010
 Zerner damping         CNVZerner       .... off
 Static damping         CNVDamp         .... on
   Fraction old density DampFac         ....    0.7000
   Max. Damping (<1)    DampMax         ....    0.9800
   Min. Damping (>=0)   DampMin         ....    0.0000
   Turn off err/grad.   DampErr         ....    0.1000
 Fernandez-Rico         CNVRico         .... off

SCF Procedure:
 Maximum # iterations   MaxIter         ....   125
 SCF integral mode      SCFMode         .... Direct
   Integral package                     .... SHARK and LIBINT hybrid scheme
 Reset frequency        DirectResetFreq ....    20
 Integral Threshold     Thresh          ....  2.500e-11 Eh
 Primitive CutOff       TCut            ....  2.500e-12 Eh

Convergence Tolerance:
 Convergence Check Mode ConvCheckMode   .... Total+1el-Energy
 Convergence forced     ConvForced      .... 1
 Energy Change          TolE            ....  1.000e-08 Eh
 1-El. energy change                    ....  1.000e-05 Eh
 DIIS Error             TolErr          ....  5.000e-07


Diagonalization of the overlap matrix:
Smallest eigenvalue                        ... 2.144e-04
Time for diagonalization                   ...    0.253 sec
Threshold for overlap eigenvalues          ... 1.000e-08
Number of eigenvalues below threshold      ... 0
Time for construction of square roots      ...    0.147 sec
Total time needed                          ...    0.407 sec

Time for model grid setup =    2.761 sec

------------------------------
INITIAL GUESS: MODEL POTENTIAL
------------------------------
Loading Hartree-Fock densities                     ... done
Calculating cut-offs                               ... done
Initializing the effective Hamiltonian             ... done
Setting up the integral package (SHARK)            ... done
Starting the Coulomb interaction                   ... done (   2.5 sec)
Reading the grid                                   ... done
Mapping shells                                     ... done
Starting the XC term evaluation                    ... done (   0.7 sec)
  promolecular density results
     # of electrons  =    434.993747023
     EX              =   -412.531181601
     EC              =     -5.650870113
     EX+EC           =   -418.182051714
Transforming the Hamiltonian                       ... done (   0.1 sec)
Diagonalizing the Hamiltonian                      ... done (   0.2 sec)
Back transforming the eigenvectors                 ... done (   0.0 sec)
Now organizing SCF variables                       ... done
                      ------------------
                      INITIAL GUESS DONE (   6.3 sec)
                      ------------------
-------------------
DFT GRID GENERATION
-------------------

General Integration Accuracy     IntAcc      ... 4.388
Radial Grid Type                 RadialGrid  ... OptM3 with GC (2021)
Angular Grid (max. ang.)         AngularGrid ... 4 (Lebedev-302)
Angular grid pruning method      GridPruning ... 4 (adaptive)
Weight generation scheme         WeightScheme... Becke
Basis function cutoff            BFCut       ... 1.0000e-11
Integration weight cutoff        WCut        ... 1.0000e-14
Angular grids for H and He will be reduced by one unit
Partially contracted basis set               ... off
Rotationally invariant grid construction     ... off

Total number of grid points                  ...   476196
Total number of batches                      ...     7491
Average number of points per batch           ...       63
Average number of grid points per atom       ...     4859
Time for grid setup =    9.799 sec

--------------------
COSX GRID GENERATION
--------------------

GRIDX 1
-------
General Integration Accuracy     IntAcc      ... 3.816
Radial Grid Type                 RadialGrid  ... OptM3 with GC (2021)
Angular Grid (max. ang.)         AngularGrid ... 1 (Lebedev-50)
Angular grid pruning method      GridPruning ... 4 (adaptive)
Weight generation scheme         WeightScheme... Becke
Basis function cutoff            BFCut       ... 1.0000e-11
Integration weight cutoff        WCut        ... 1.0000e-14
Angular grids for H and He will be reduced by one unit
Partially contracted basis set               ... on
Rotationally invariant grid construction     ... off

Total number of grid points                  ...    59994
Total number of batches                      ...      975
Average number of points per batch           ...       61
Average number of grid points per atom       ...      612
UseSFitting                                  ... on

GRIDX 2
-------
General Integration Accuracy     IntAcc      ... 4.020
Radial Grid Type                 RadialGrid  ... OptM3 with GC (2021)
Angular Grid (max. ang.)         AngularGrid ... 2 (Lebedev-110)
Angular grid pruning method      GridPruning ... 4 (adaptive)
Weight generation scheme         WeightScheme... Becke
Basis function cutoff            BFCut       ... 1.0000e-11
Integration weight cutoff        WCut        ... 1.0000e-14
Angular grids for H and He will be reduced by one unit
Partially contracted basis set               ... on
Rotationally invariant grid construction     ... off

Total number of grid points                  ...   128809
Total number of batches                      ...     2061
Average number of points per batch           ...       62
Average number of grid points per atom       ...     1314
UseSFitting                                  ... on

GRIDX 3
-------
General Integration Accuracy     IntAcc      ... 4.338
Radial Grid Type                 RadialGrid  ... OptM3 with GC (2021)
Angular Grid (max. ang.)         AngularGrid ... 3 (Lebedev-194)
Angular grid pruning method      GridPruning ... 4 (adaptive)
Weight generation scheme         WeightScheme... Becke
Basis function cutoff            BFCut       ... 1.0000e-11
Integration weight cutoff        WCut        ... 1.0000e-14
Angular grids for H and He will be reduced by one unit
Partially contracted basis set               ... on
Rotationally invariant grid construction     ... off

Total number of grid points                  ...   280556
Total number of batches                      ...     4431
Average number of points per batch           ...       63
Average number of grid points per atom       ...     2863
UseSFitting                                  ... on

Time for X-Grid setup             =   10.525 sec


--------------------
CPCM SOLVATION MODEL
--------------------
CPCM parameters:
  Epsilon                                         ...       8.9300
  Refrac                                          ...       1.4242
  Rsolv                                           ...       1.3000
  Surface type                                    ... GAUSSIAN VDW
  Epsilon function type                           ...         CPCM
Solvent:                                     ... CH2CL2
SMD-CDS solvent descriptors:
  Soln                                       ...    1.4242
  Soln25                                     ...    1.4212
  Sola                                       ...    0.1000
  Solb                                       ...    0.0500
  Solg                                       ...   39.1500
  Solc                                       ...    0.0000
  Solh                                       ...    0.6670
Radii:
 Radius for C  used is    3.4960 Bohr (=   1.8500 Ang.)
 Radius for H  used is    2.2677 Bohr (=   1.2000 Ang.)
 Radius for O  used is    3.9949 Bohr (=   2.1140 Ang.)
 Radius for P  used is    4.0062 Bohr (=   2.1200 Ang.)
 Radius for Cu used is    3.5149 Bohr (=   1.8600 Ang.)
 Radius for N  used is    3.5716 Bohr (=   1.8900 Ang.)
Calculating surface                               ...        done! (  0.0s)
GEPOL surface points                              ...         5597
GEPOL Volume                                      ...    5393.1949
GEPOL Surface-area                                ...    2759.8302
Calculating surface distance matrix               ...        done! (  0.3s)
Performing Cholesky decomposition & store         ...        done! (  1.5s)
Overall time for CPCM initialization              ...                 1.8s
--------------
SCF ITERATIONS
--------------
ITER       Energy         Delta-E        Max-DP      RMS-DP      [F,P]     Damp
               ***  Starting incremental Fock matrix formation  ***
  0  -4536.2690799185   0.000000000000 0.12318222  0.00106131  0.1527528 0.7000
  1  -4536.6461361414  -0.377056222861 0.11368800  0.00083389  0.0960640 0.7000
                               ***Turning on DIIS***
  2  -4536.8647941404  -0.218657999022 0.30740729  0.00193922  0.0532949 0.0000
  3  -4537.2672735009  -0.402479360558 0.04201761  0.00032112  0.0303769 0.0000
  4  -4537.3035733487  -0.036299847735 0.01575573  0.00011301  0.0077106 0.0000
  5  -4537.3051122649  -0.001538916230 0.01259708  0.00005593  0.0109503 0.0000
  6  -4537.3055045723  -0.000392307407 0.00382182  0.00002807  0.0069695 0.0000
  7  -4537.3056167344  -0.000112162042 0.00239102  0.00001205  0.0029442 0.0000
  8  -4537.3056460913  -0.000029356916 0.00111074  0.00000971  0.0004353 0.0000
               *** Restarting incremental Fock matrix formation ***
                                   *** Resetting DIIS ***
  9  -4537.3054693597   0.000176731581 0.00157398  0.00002023  0.0004428 0.0000
 10  -4537.3054730161  -0.000003656380 0.00038144  0.00000315  0.0005767 0.0000
 11  -4537.3054736904  -0.000000674358 0.00023031  0.00000206  0.0004250 0.0000
 12  -4537.3054739901  -0.000000299690 0.00010060  0.00000063  0.0001847 0.0000
 13  -4537.3054740441  -0.000000053974 0.00003130  0.00000028  0.0000634 0.0000
 14  -4537.3054740998  -0.000000055724 0.00001382  0.00000010  0.0000140 0.0000
 15  -4537.3054741475  -0.000000047715 0.00000464  0.00000006  0.0000039 0.0000
 16  -4537.3054742645  -0.000000116979 0.00000197  0.00000003  0.0000013 0.0000
                            ***DIIS convergence achieved***

               *****************************************************
               *                     SUCCESS                       *
               *           SCF CONVERGED AFTER  17 CYCLES          *
               *****************************************************

Old exchange energy                            =   -288.749795144 Eh
New exchange energy                            =   -288.749905604 Eh
Exchange energy change after final integration =     -0.000110460 Eh
Total energy after final integration           =  -4537.305584854 Eh
Final COS-X integration done in                =   107.852 sec

SMD CDS free energy correction energy :               -17.62942     Kcal/mol
Total Energy after SMD CDS correction =             -4537.333679117 Eh

----------------
TOTAL SCF ENERGY
----------------

Total Energy       :        -4537.33367912 Eh         -123467.12636 eV

Components:
Nuclear Repulsion  :         9999.71164220 Eh          272105.98739 eV
Electronic Energy  :       -14537.04532131 Eh         -395573.11374 eV
One Electron Energy:       -26138.27449614 Eh         -711258.60873 eV
Two Electron Energy:        11601.22917482 Eh          315685.49499 eV
Max COSX asymmetry :            0.00002168 Eh               0.00059 eV
CPCM Dielectric    :           -0.08349999 Eh              -2.27215 eV
SMD CDS (Gcds)     :           -0.02809426 Eh              -0.76448 eV

Virial components:
Potential Energy   :        -9051.93174451 Eh         -246315.58521 eV
Kinetic Energy     :         4514.59806539 Eh          122848.45885 eV
Virial Ratio       :            2.00503602


DFT components:
N(Alpha)           :      216.999893044533 electrons
N(Beta)            :      216.999893044533 electrons
N(Total)           :      433.999786089067 electrons
E(X)               :     -129.261883164071 Eh       
E(C)               :      -10.170842109901 Eh       
E(XC)              :     -139.432725273972 Eh       
DFET-embed. en.    :        0.000000000000 Eh       
CPCM Solvation Model Properties:
Surface-charge          :           -1.07325376
Charge-correction       :            0.00513424 Eh               0.13971 eV
Free-energy (cav+disp)  :           -0.02809426 Eh              -0.76448 eV

---------------
SCF CONVERGENCE
---------------

  Last Energy change         ...   -1.2906e-07  Tolerance :   1.0000e-08
  Last MAX-Density change    ...    0.0000e+00  Tolerance :   1.0000e-07
  Last RMS-Density change    ...    0.0000e+00  Tolerance :   5.0000e-09
  Last DIIS Error            ...    6.9573e-07  Tolerance :   5.0000e-07

             **** THE GBW FILE WAS UPDATED (Cu50_DPEPhos-pytri.gbw) ****
             **** DENSITY Cu50_DPEPhos-pytri.scfp WAS UPDATED ****
             **** ENERGY FILE WAS UPDATED (Cu50_DPEPhos-pytri.en.tmp) ****
             **** THE GBW FILE WAS UPDATED (Cu50_DPEPhos-pytri.gbw) ****
             **** DENSITY Cu50_DPEPhos-pytri.scfp WAS UPDATED ****
----------------
ORBITAL ENERGIES
----------------

  NO   OCC          E(Eh)            E(eV) 
   0   2.0000    -326.529440     -8885.3178 
   1   2.0000     -78.833976     -2145.1815 
   2   2.0000     -78.833436     -2145.1668 
   3   2.0000     -40.052773     -1089.8914 
   4   2.0000     -35.015536      -952.8212 
   5   2.0000     -35.015215      -952.8124 
   6   2.0000     -35.014945      -952.8051 
   7   2.0000     -20.067035      -546.0518 
   8   2.0000     -15.221192      -414.1897 
   9   2.0000     -15.183470      -413.1632 
  10   2.0000     -15.157847      -412.4660 
  11   2.0000     -15.131770      -411.7564 
  12   2.0000     -10.918853      -297.1171 
  13   2.0000     -10.916727      -297.0592 
  14   2.0000     -10.910241      -296.8827 
  15   2.0000     -10.905894      -296.7645 
  16   2.0000     -10.900345      -296.6135 
  17   2.0000     -10.892619      -296.4032 
  18   2.0000     -10.888495      -296.2910 
  19   2.0000     -10.869686      -295.7792 
  20   2.0000     -10.859525      -295.5027 
  21   2.0000     -10.859343      -295.4977 
  22   2.0000     -10.855299      -295.3877 
  23   2.0000     -10.854163      -295.3568 
  24   2.0000     -10.854024      -295.3530 
  25   2.0000     -10.853894      -295.3495 
  26   2.0000     -10.853623      -295.3421 
  27   2.0000     -10.853442      -295.3372 
  28   2.0000     -10.853439      -295.3371 
  29   2.0000     -10.852531      -295.3124 
  30   2.0000     -10.851893      -295.2950 
  31   2.0000     -10.851771      -295.2917 
  32   2.0000     -10.850951      -295.2694 
  33   2.0000     -10.850834      -295.2662 
  34   2.0000     -10.849947      -295.2421 
  35   2.0000     -10.849556      -295.2314 
  36   2.0000     -10.849455      -295.2287 
  37   2.0000     -10.848823      -295.2115 
  38   2.0000     -10.848687      -295.2078 
  39   2.0000     -10.848363      -295.1990 
  40   2.0000     -10.847742      -295.1821 
  41   2.0000     -10.846770      -295.1556 
  42   2.0000     -10.846662      -295.1527 
  43   2.0000     -10.845884      -295.1315 
  44   2.0000     -10.845579      -295.1232 
  45   2.0000     -10.845526      -295.1218 
  46   2.0000     -10.844540      -295.0949 
  47   2.0000     -10.844278      -295.0878 
  48   2.0000     -10.844017      -295.0807 
  49   2.0000     -10.843692      -295.0719 
  50   2.0000     -10.843687      -295.0717 
  51   2.0000     -10.842844      -295.0488 
  52   2.0000     -10.842740      -295.0460 
  53   2.0000     -10.842471      -295.0386 
  54   2.0000     -10.842383      -295.0362 
  55   2.0000     -10.842151      -295.0299 
  56   2.0000     -10.841989      -295.0255 
  57   2.0000     -10.841980      -295.0253 
  58   2.0000     -10.840982      -294.9981 
  59   2.0000     -10.840548      -294.9863 
  60   2.0000     -10.838954      -294.9429 
  61   2.0000     -10.823587      -294.5248 
  62   2.0000      -7.170086      -195.1080 
  63   2.0000      -7.169367      -195.0884 
  64   2.0000      -5.167812      -140.6233 
  65   2.0000      -5.167642      -140.6187 
  66   2.0000      -5.167109      -140.6042 
  67   2.0000      -5.166962      -140.6002 
  68   2.0000      -5.166729      -140.5939 
  69   2.0000      -5.166034      -140.5749 
  70   2.0000      -4.737969      -128.9267 
  71   2.0000      -3.120887       -84.9236 
  72   2.0000      -3.118733       -84.8650 
  73   2.0000      -3.116426       -84.8023 
  74   2.0000      -1.356090       -36.9011 
  75   2.0000      -1.320052       -35.9205 
  76   2.0000      -1.182469       -32.1766 
  77   2.0000      -1.152512       -31.3615 
  78   2.0000      -1.072650       -29.1883 
  79   2.0000      -1.063733       -28.9457 
  80   2.0000      -1.061074       -28.8733 
  81   2.0000      -1.059946       -28.8426 
  82   2.0000      -1.055056       -28.7095 
  83   2.0000      -1.054081       -28.6830 
  84   2.0000      -1.051291       -28.6071 
  85   2.0000      -1.034067       -28.1384 
  86   2.0000      -1.005652       -27.3652 
  87   2.0000      -0.970411       -26.4062 
  88   2.0000      -0.965630       -26.2761 
  89   2.0000      -0.964587       -26.2477 
  90   2.0000      -0.954106       -25.9625 
  91   2.0000      -0.949871       -25.8473 
  92   2.0000      -0.934380       -25.4258 
  93   2.0000      -0.933123       -25.3916 
  94   2.0000      -0.931291       -25.3417 
  95   2.0000      -0.928979       -25.2788 
[...]
   208a -> 217a  :     0.010098 
   209a -> 217a  :     0.015828 
   210a -> 217a  :     0.060773 
   210a -> 218a  :     0.023835 
   210a -> 223a  :     0.022342 
   212a -> 217a  :     0.051155 
   212a -> 218a  :     0.014953 
   213a -> 217a  :     0.012911 
   214a -> 217a  :     0.075807 
   215a -> 217a  :     0.059296 
   215a -> 218a  :     0.062682 
   215a -> 227a  :     0.037243 
   216a -> 225a  :     0.036949 

STATE 34:  E=   0.205816 au      5.601 eV    45171.5 cm**-1 <S**2> =   0.000000
   207a -> 229a  :     0.014807 
   208a -> 225a  :     0.015819 
   209a -> 225a  :     0.010279 
   210a -> 219a  :     0.011832 
   212a -> 219a  :     0.025242 
   212a -> 224a  :     0.012565 
   213a -> 219a  :     0.049274 
   213a -> 220a  :     0.113767 
   213a -> 232a  :     0.011614 
   214a -> 220a  :     0.035337 
   214a -> 221a  :     0.019632 
   216a -> 226a  :     0.215520 
   216a -> 227a  :     0.016818 
   216a -> 228a  :     0.011709 
   216a -> 231a  :     0.010160 

STATE 35:  E=   0.200444 au      5.454 eV    43992.3 cm**-1 <S**2> =   0.000000
   185a -> 223a  :     0.014765 
   199a -> 223a  :     0.030642 
   200a -> 217a  :     0.011777 
   200a -> 223a  :     0.020516 
   202a -> 217a  :     0.044198 
   202a -> 218a  :     0.023414 
   202a -> 223a  :     0.050372 
   203a -> 227a  :     0.047704 
   205a -> 218a  :     0.010010 
   205a -> 227a  :     0.083057 
   205a -> 228a  :     0.010763 
   206a -> 227a  :     0.039553 
   212a -> 218a  :     0.034997 
   213a -> 218a  :     0.011024 
   213a -> 219a  :     0.010999 
   213a -> 220a  :     0.022786 
   214a -> 217a  :     0.014153 
   214a -> 218a  :     0.034586 
   215a -> 233a  :     0.019134 
   216a -> 223a  :     0.021860 
   216a -> 225a  :     0.020590 
   216a -> 229a  :     0.011282 

STATE 36:  E=   0.193760 au      5.272 eV    42525.3 cm**-1 <S**2> =   0.000000
   185a -> 223a  :     0.022287 
   199a -> 223a  :     0.048437 
   200a -> 217a  :     0.022333 
   200a -> 222a  :     0.014517 
   200a -> 223a  :     0.031292 
   202a -> 217a  :     0.032653 
   202a -> 218a  :     0.016825 
   202a -> 221a  :     0.010066 
   202a -> 222a  :     0.025714 
   202a -> 223a  :     0.074323 
   203a -> 227a  :     0.037154 
   205a -> 218a  :     0.010816 
   205a -> 223a  :     0.026468 
   205a -> 227a  :     0.050610 
   206a -> 218a  :     0.019370 
   206a -> 227a  :     0.027639 
   214a -> 223a  :     0.016176 
   215a -> 227a  :     0.021005 
   215a -> 233a  :     0.019921 
   216a -> 223a  :     0.052146 
   216a -> 225a  :     0.010633 
   216a -> 226a  :     0.016531 
   216a -> 229a  :     0.013637 

STATE 37:  E=   0.207199 au      5.638 eV    45474.9 cm**-1 <S**2> =   0.000000
   203a -> 227a  :     0.030817 
   205a -> 227a  :     0.042861 
   206a -> 227a  :     0.015439 
   206a -> 228a  :     0.011644 
   206a -> 229a  :     0.012007 
   207a -> 224a  :     0.010808 
   209a -> 222a  :     0.012076 
   211a -> 219a  :     0.017469 
   213a -> 220a  :     0.045736 
   213a -> 221a  :     0.011539 
   214a -> 219a  :     0.028030 
   214a -> 220a  :     0.016531 
   214a -> 225a  :     0.010351 
   214a -> 226a  :     0.037941 
   215a -> 218a  :     0.021352 
   215a -> 226a  :     0.014610 
   215a -> 233a  :     0.015900 
   216a -> 221a  :     0.019650 
   216a -> 225a  :     0.057512 
   216a -> 226a  :     0.055574 
   216a -> 227a  :     0.010753 
   216a -> 229a  :     0.058207 
   216a -> 230a  :     0.010727 
   216a -> 231a  :     0.011566 
   216a -> 232a  :     0.014945 

STATE 38:  E=   0.204995 au      5.578 eV    44991.2 cm**-1 <S**2> =   0.000000
   206a -> 219a  :     0.010481 
   206a -> 220a  :     0.012806 
   209a -> 220a  :     0.019395 
   210a -> 220a  :     0.011571 
   211a -> 219a  :     0.037069 
   212a -> 221a  :     0.014076 
   213a -> 218a  :     0.013931 
   213a -> 219a  :     0.013517 
   213a -> 228a  :     0.017067 
   213a -> 229a  :     0.026550 
   214a -> 218a  :     0.011539 
   214a -> 220a  :     0.074085 
   214a -> 221a  :     0.047644 
   214a -> 231a  :     0.013309 
   215a -> 217a  :     0.012899 
   215a -> 220a  :     0.018084 
   216a -> 220a  :     0.022521 
   216a -> 221a  :     0.015386 
   216a -> 227a  :     0.014741 
   216a -> 228a  :     0.059316 
   216a -> 229a  :     0.073407 
   216a -> 230a  :     0.010679 

STATE 39:  E=   0.210401 au      5.725 eV    46177.6 cm**-1 <S**2> =   0.000000
   198a -> 217a  :     0.013790 
   206a -> 219a  :     0.014740 
   206a -> 220a  :     0.015960 
   207a -> 220a  :     0.026141 
   210a -> 218a  :     0.014102 
   210a -> 219a  :     0.021785 
   210a -> 220a  :     0.015526 
   211a -> 219a  :     0.022405 
   211a -> 226a  :     0.019971 
   211a -> 229a  :     0.010667 
   212a -> 219a  :     0.014975 
   212a -> 220a  :     0.010611 
   212a -> 229a  :     0.012067 
   213a -> 219a  :     0.016923 
   213a -> 221a  :     0.017917 
   213a -> 229a  :     0.012087 
   214a -> 218a  :     0.054703 
   214a -> 221a  :     0.018892 
   215a -> 217a  :     0.020222 
   216a -> 226a  :     0.041814 
   216a -> 228a  :     0.070757 

STATE 40:  E=   0.206450 au      5.618 eV    45310.6 cm**-1 <S**2> =   0.000000
   198a -> 217a  :     0.017791 
   201a -> 219a  :     0.023376 
   202a -> 223a  :     0.010052 
   203a -> 227a  :     0.011820 
   205a -> 217a  :     0.023071 
   205a -> 218a  :     0.013960 
   205a -> 227a  :     0.011674 
   206a -> 219a  :     0.013333 
   210a -> 217a  :     0.011709 
   211a -> 218a  :     0.010854 
   213a -> 218a  :     0.036822 
   213a -> 219a  :     0.018761 
   213a -> 221a  :     0.085994 
   213a -> 226a  :     0.019236 
   213a -> 232a  :     0.013974 
   214a -> 218a  :     0.012899 
   214a -> 219a  :     0.029855 
   214a -> 226a  :     0.015664 
   214a -> 229a  :     0.013779 
   215a -> 217a  :     0.022455 
   215a -> 227a  :     0.020592 
   216a -> 220a  :     0.014044 
   216a -> 228a  :     0.082368 


-------------------------
TD-DFT-EXCITATION SPECTRA
-------------------------

Center of mass = (  0.0353, -0.0025,  0.0209)
Calculating the Dipole integrals                  ... done
Transforming integrals                            ... done
Calculating the Linear Momentum integrals         ... done
Transforming integrals                            ... done
Calculating angular momentum integrals            ... done
Transforming integrals                            ... done

-----------------------------------------------------------------------------
         ABSORPTION SPECTRUM VIA TRANSITION ELECTRIC DIPOLE MOMENTS
-----------------------------------------------------------------------------
State   Energy    Wavelength  fosc         T2        TX        TY        TZ  
        (cm-1)      (nm)                 (au**2)    (au)      (au)      (au) 
-----------------------------------------------------------------------------
   1   37309.3    268.0   0.712484374   6.28685   2.07945  -0.39253   1.34486
   2   32439.9    308.3   0.221836450   2.25128  -1.48004  -0.01495   0.24604
   3   36714.8    272.4   0.005708185   0.05118  -0.17103  -0.14194   0.04228
   4   32066.3    311.9   0.080381755   0.82525  -0.09686   0.85280  -0.29765
   5   36085.6    277.1   0.263157386   2.40081   0.55302  -0.88487  -1.14541
   6   36925.5    270.8   0.160994337   1.43536  -0.41512  -0.83942   0.74727
   7   36965.6    270.5   0.014134367   0.12588   0.24249   0.08867   0.24334
   8   38654.8    258.7   0.332795630   2.83432   1.48196  -0.15040   0.78454
   9   37840.0    264.3   0.010485734   0.09123  -0.18244   0.08469  -0.22532
  10   32306.1    309.5   0.022973532   0.23411  -0.41089  -0.25414   0.02621
  11   38363.7    260.7   0.043295429   0.37153  -0.50599  -0.14484  -0.30745
  12   38435.3    260.2   0.018313029   0.15686   0.23628  -0.29685   0.11364
  13   38955.2    256.7   0.013838216   0.11695  -0.10497  -0.19603   0.25981
  14   38855.6    257.4   0.006935846   0.05877   0.00337  -0.23664   0.05250
  15   39269.6    254.6   0.003004941   0.02519   0.09432  -0.00345  -0.12761
  16   37971.3    263.4   0.075255052   0.65246   0.08243   0.77693  -0.20505
  17   37853.4    264.2   0.044427311   0.38638  -0.16840   0.25989   0.53897
  18   40577.2    246.4   0.001164974   0.00945  -0.01954   0.02004   0.09310
  19   43958.4    227.5   0.022777659   0.17059   0.10833   0.39159   0.07424
  20   38682.9    258.5   0.010102319   0.08598   0.25705  -0.13865   0.02603
  21   43279.0    231.1   0.017953819   0.13657   0.35039   0.11577   0.01992
  22   44652.2    224.0   0.074917753   0.55235   0.26459   0.68807  -0.09438
  23   44660.1    223.9   0.043308422   0.31925  -0.43768  -0.34257  -0.10166
  24   46361.8    215.7   0.038230977   0.27148  -0.16294   0.14636  -0.47276
  25   41519.7    240.8   0.125702933   0.99670  -0.50286  -0.57197  -0.64551
  26   36496.9    274.0   0.077571818   0.69972   0.18462  -0.69422   0.42860
  27   35715.4    280.0   0.030736935   0.28332   0.34180  -0.38460   0.13629
  28   44235.2    226.1   0.133577275   0.99412  -0.56380   0.60017  -0.56219
  29   43094.2    232.0   0.137257361   1.04856   0.29637   0.91920  -0.34029
  30   43271.5    231.1   0.184798658   1.40596  -1.14930   0.29155   0.00749
  31   42694.7    234.2   0.284127288   2.19086  -1.06878   1.00247   0.20885
  32   41481.5    241.1   0.271773007   2.15689  -0.74450   0.93641  -0.85191
  33   45761.7    218.5   0.305558444   2.19820   0.06366   1.22400  -0.83425
  34   45171.5    221.4   0.202694873   1.47725  -0.95552  -0.16918  -0.73185
  35   43992.3    227.3   0.151608004   1.13454   1.02328  -0.10166   0.27766
  36   42525.3    235.2   0.264068037   2.04430  -1.31689  -0.55319   0.06383
  37   45474.9    219.9   0.101491115   0.73474  -0.84824   0.12143  -0.02172
  38   44991.2    222.3   0.131350093   0.96112   0.71210   0.67296   0.03422
  39   46177.6    216.6   0.347442281   2.47701   1.48166   0.51485   0.12887
  40   45310.6    220.7   0.042113155   0.30598  -0.18109  -0.44124   0.28016

-----------------------------------------------------------------------------
         ABSORPTION SPECTRUM VIA TRANSITION VELOCITY DIPOLE MOMENTS
-----------------------------------------------------------------------------
State   Energy    Wavelength   fosc        P2         PX        PY        PZ  
        (cm-1)      (nm)                 (au**2)     (au)      (au)      (au) 
-----------------------------------------------------------------------------
   1   37309.3    268.0   0.802560803   0.20465  -0.37446   0.06951  -0.24412
   2   32439.9    308.3   0.357236719   0.07920   0.27794   0.00175  -0.04415
   3   36714.8    272.4   0.005926630   0.00149   0.03010   0.02409  -0.00067
   4   32066.3    311.9   0.139896246   0.03066   0.01987  -0.16359   0.05920
   5   36085.6    277.1   0.368233738   0.09082  -0.10874   0.17164   0.22255
   6   36925.5    270.8   0.229446473   0.05790   0.08061   0.16885  -0.15132
   7   36965.6    270.5   0.018013058   0.00455  -0.04637  -0.01885  -0.04523
   8   38654.8    258.7   0.434815147   0.11487  -0.29743   0.03119  -0.15949
   9   37840.0    264.3   0.013922470   0.00360   0.03177  -0.01725   0.04789
  10   32306.1    309.5   0.040010474   0.00883   0.08289   0.04403  -0.00495
  11   38363.7    260.7   0.058162545   0.01525   0.10297   0.03177   0.06032
  12   38435.3    260.2   0.028007251   0.00736  -0.05172   0.06459  -0.02259
  13   38955.2    256.7   0.019492499   0.00519   0.02314   0.04067  -0.05477
  14   38855.6    257.4   0.009709709   0.00258  -0.00061   0.04964  -0.01066
  15   39269.6    254.6   0.003837848   0.00103  -0.01757  -0.00213   0.02677
  16   37971.3    263.4   0.124163034   0.03222  -0.01240  -0.17435   0.04088
  17   37853.4    264.2   0.084132199   0.02177   0.04037  -0.07017  -0.12334
  18   40577.2    246.4   0.002284548   0.00063   0.00731  -0.01382  -0.01973
  19   43958.4    227.5   0.031141675   0.00936  -0.02631  -0.09127  -0.01826
  20   38682.9    258.5   0.013443975   0.00355  -0.05514   0.02043  -0.00982
  21   43279.0    231.1   0.021548592   0.00637  -0.07598  -0.02365  -0.00644
  22   44652.2    224.0   0.096984345   0.02960  -0.06130  -0.15956   0.01945
  23   44660.1    223.9   0.049708974   0.01517   0.09743   0.07223   0.02153
  24   46361.8    215.7   0.036543757   0.01158   0.03929  -0.02722   0.09641
  25   41519.7    240.8   0.177389888   0.05034   0.11139   0.13252   0.14272
  26   36496.9    274.0   0.134101526   0.03345  -0.04211   0.15252  -0.09174
  27   35715.4    280.0   0.061532486   0.01502  -0.07398   0.09418  -0.02602
  28   44235.2    226.1   0.179927685   0.05440   0.13610  -0.13489   0.13296
  29   43094.2    232.0   0.190541366   0.05612  -0.06827  -0.21294   0.07820
  30   43271.5    231.1   0.264731572   0.07829   0.27156  -0.06733   0.00391
  31   42694.7    234.2   0.415906070   0.12136   0.24547  -0.24122  -0.05399
  32   41481.5    241.1   0.429968947   0.12190   0.17514  -0.22168   0.20514
  33   45761.7    218.5   0.394088251   0.12325  -0.01281  -0.29008   0.19734
  34   45171.5    221.4   0.265220267   0.08188   0.22657   0.04169   0.16972
  35   43992.3    227.3   0.208382921   0.06265  -0.24152   0.02237  -0.06182
  36   42525.3    235.2   0.403509034   0.11728   0.31460   0.13454  -0.01408
  37   45474.9    219.9   0.131470589   0.04086   0.19918  -0.03423   0.00415
  38   44991.2    222.3   0.177323044   0.05453  -0.16952  -0.16030  -0.00952
  39   46177.6    216.6   0.455005520   0.14360  -0.35649  -0.12508  -0.02948
  40   45310.6    220.7   0.059924639   0.01856   0.04498   0.11074  -0.06535

-------------------------------------------------------------------
                             CD SPECTRUM
-------------------------------------------------------------------
State  Energy     Wavelength     R         MX        MY        MZ   
       (cm-1)       (nm)     (1e40*cgs)   (au)      (au)      (au)  
-------------------------------------------------------------------
   1   37309.3    268.0    125.30226  -0.14602   1.35791   0.81975
   2   32439.9    308.3    -268.10302   0.36634  -0.20858  -0.12028
   3   36714.8    272.4     34.12660  -0.37006  -0.01520   0.16414
   4   32066.3    311.9    127.35981   0.48340   0.45567   0.24065
   5   36085.6    277.1     79.74852  -0.39706   0.50020  -0.72581
   6   36925.5    270.8    -107.98060   0.08149  -0.25529  -0.54800
   7   36965.6    270.5    -33.83247  -0.25919   0.10402  -0.07453
   8   38654.8    258.7    -54.97322   0.14378  -0.23502  -0.46528
   9   37840.0    264.3      5.55404   0.00580  -0.19552  -0.13047
  10   32306.1    309.5     23.51648   0.00527  -0.20115   0.03533
  11   38363.7    260.7      8.95690  -0.20595   0.01067   0.27213
  12   38435.3    260.2     17.27686   0.05085  -0.11287  -0.07808
  13   38955.2    256.7     58.03206  -0.31663  -0.25865   0.15070
  14   38855.6    257.4    -15.29945  -0.01035   0.11030  -0.12030
  15   39269.6    254.6     18.98613   0.17859   0.06469  -0.18533
  16   37971.3    263.4     92.40261   0.04746   0.27640   0.11051
  17   37853.4    264.2    -26.82176   0.10932  -0.23251   0.04071
  18   40577.2    246.4    -10.59959   0.45239  -0.06999  -0.13145
  19   43958.4    227.5    -11.85088  -0.06896  -0.05671   0.06113
  20   38682.9    258.5    -16.16823  -0.07075   0.16812   0.27664
  21   43279.0    231.1    -33.15090  -0.15900  -0.17055   0.25799
  22   44652.2    224.0    -72.86176   0.14947  -0.30329  -0.15457
  23   44660.1    223.9     64.33068  -0.33143  -0.00964   0.11716
  24   46361.8    215.7    -42.21373  -0.02259   0.07360   0.21997
  25   41519.7    240.8     90.50000  -0.56224  -0.09515   0.22492
  26   36496.9    274.0    -38.62050  -0.24203   0.36615   0.50619
  27   35715.4    280.0    -146.02500  -0.55353   0.44426   0.36926
  28   44235.2    226.1      4.44503   0.33598   0.22645  -0.11197
  29   43094.2    232.0    -154.66282  -0.21331  -0.21024   0.21037
  30   43271.5    231.1    -189.08960   0.30623  -0.18116   0.49210
  31   42694.7    234.2    -90.90789   0.65661   0.51521  -0.03609
  32   41481.5    241.1     84.42149  -0.72045  -0.22285   0.17446
  33   45761.7    218.5    -230.22502   0.39626  -1.05495  -0.93222
  34   45171.5    221.4    612.03689  -0.69148  -0.28429  -0.80533
  35   43992.3    227.3    -298.15634  -0.79121   0.13815   0.68882
  36   42525.3    235.2    -404.74555   0.37145   0.63212  -0.30811
  37   45474.9    219.9    360.07218  -1.08605  -1.04210   1.42387
  38   44991.2    222.3    -175.13081   0.15027  -0.75367   0.83883
  39   46177.6    216.6    -329.49778  -0.58903  -0.02570   1.45163
  40   45310.6    220.7    -143.49915  -0.16687   1.05408   0.46584

Total run time:    56494.277 sec

           *** ORCA-CIS/TD-DFT FINISHED WITHOUT ERROR ***

Maximum memory used throughout the entire CIS-calculation: 6118.6 MB

-----------------------
CIS/TD-DFT TOTAL ENERGY
-----------------------

    E(SCF)  =  -4537.333679117 Eh
    DE(CIS) =      0.169993836 Eh (Root  1)
    ----------------------------- ---------
    E(tot)  =  -4537.163685281 Eh


-------------------------   --------------------
FINAL SINGLE POINT ENERGY     -4537.163685280983
-------------------------   --------------------


                            ***************************************
                            *     ORCA property calculations      *
                            ***************************************


  WARNING: The energy has been calculated at the MP2 level but the densities
           used in the property calculations are still SCF densities
           MP2 response densities have not been calculated 
           use %mp2 Density relaxed end
           or  %mp2 Density unrelaxed end

                                    ---------------------
                                    Active property flags
                                    ---------------------
   (+) Dipole Moment


------------------------------------------------------------------------------
                       ORCA ELECTRIC PROPERTIES CALCULATION
------------------------------------------------------------------------------

Dipole Moment Calculation                       ... on
Quadrupole Moment Calculation                   ... off
Polarizability Calculation                      ... off
GBWName                                         ... Cu50_DPEPhos-pytri.gbw
Electron density                                ... Cu50_DPEPhos-pytri.scfp
The origin for moment calculation is the CENTER OF MASS  = ( 0.035284, -0.002473  0.020936)

-------------
DIPOLE MOMENT
-------------
                                X             Y             Z
Electronic contribution:     14.17547      -2.84052      11.14404
Nuclear contribution   :    -15.34854       1.07561      -9.10706
                        -----------------------------------------
Total Dipole Moment    :     -1.17307      -1.76491       2.03697
                        -----------------------------------------
Magnitude (a.u.)       :      2.93943
Magnitude (Debye)      :      7.47144



--------------------
Rotational spectrum 
--------------------
 
Rotational constants in cm-1:     0.001847     0.001372     0.001226 
Rotational constants in MHz :    55.376394    41.117827    36.746550 

 Dipole components along the rotational axes: 
x,y,z [a.u.] :     1.186845    -1.756573     2.036201 
x,y,z [Debye]:     3.016720    -4.464853     5.175611 

 

Timings for individual modules:

Sum of individual times         ...    58628.027 sec (= 977.134 min)
GTO integral calculation        ...        4.214 sec (=   0.070 min)   0.0 %
SCF iterations                  ...      937.268 sec (=  15.621 min)   1.6 %
MP2 module                      ...     1190.273 sec (=  19.838 min)   2.0 %
CIS module                      ...    56496.272 sec (= 941.605 min)  96.4 %
                             ****ORCA TERMINATED NORMALLY****
TOTAL RUN TIME: 0 days 16 hours 17 minutes 14 seconds 298 msec
