
                                 *****************
                                 * O   R   C   A *
                                 *****************

                                            #,                                       
                                            ###                                      
                                            ####                                     
                                            #####                                    
                                            ######                                   
                                           ########,                                 
                                     ,,################,,,,,                         
                               ,,#################################,,                 
                          ,,##########################################,,             
                       ,#########################################, ''#####,          
                    ,#############################################,,   '####,        
                  ,##################################################,,,,####,       
                ,###########''''           ''''###############################       
              ,#####''   ,,,,##########,,,,          '''####'''          '####       
            ,##' ,,,,###########################,,,                        '##       
           ' ,,###''''                  '''############,,,                           
         ,,##''                                '''############,,,,        ,,,,,,###''
      ,#''                                            '''#######################'''  
     '                                                          ''''####''''         
             ,#######,   #######,   ,#######,      ##                                
            ,#'     '#,  ##    ##  ,#'     '#,    #''#        ######   ,####,        
            ##       ##  ##   ,#'  ##            #'  '#       #        #'  '#        
            ##       ##  #######   ##           ,######,      #####,   #    #        
            '#,     ,#'  ##    ##  '#,     ,#' ,#      #,         ##   #,  ,#        
             '#######'   ##     ##  '#######'  #'      '#     #####' # '####'        



                  #######################################################
                  #                        -***-                        #
                  #          Department of theory and spectroscopy      #
                  #    Directorship and core code : Frank Neese         #
                  #        Max Planck Institute fuer Kohlenforschung    #
                  #                Kaiser Wilhelm Platz 1               #
                  #                 D-45470 Muelheim/Ruhr               #
                  #                      Germany                        #
                  #                                                     #
                  #                  All rights reserved                #
                  #                        -***-                        #
                  #######################################################


                         Program Version 5.0.2 -  RELEASE  -


 With contributions from (in alphabetic order):
   Daniel Aravena         : Magnetic Suceptibility
   Michael Atanasov       : Ab Initio Ligand Field Theory (pilot matlab implementation)
   Alexander A. Auer      : GIAO ZORA, VPT2 properties, NMR spectrum
   Ute Becker             : Parallelization
   Giovanni Bistoni       : ED, misc. LED, open-shell LED, HFLD
   Martin Brehm           : Molecular dynamics
   Dmytro Bykov           : SCF Hessian
   Vijay G. Chilkuri      : MRCI spin determinant printing, contributions to CSF-ICE
   Dipayan Datta          : RHF DLPNO-CCSD density
   Achintya Kumar Dutta   : EOM-CC, STEOM-CC
   Dmitry Ganyushin       : Spin-Orbit,Spin-Spin,Magnetic field MRCI
   Miquel Garcia          : C-PCM and meta-GGA Hessian, CC/C-PCM, Gaussian charge scheme
   Yang Guo               : DLPNO-NEVPT2, F12-NEVPT2, CIM, IAO-localization
   Andreas Hansen         : Spin unrestricted coupled pair/coupled cluster methods
   Benjamin Helmich-Paris : MC-RPA, TRAH-SCF, COSX integrals
   Lee Huntington         : MR-EOM, pCC
   Robert Izsak           : Overlap fitted RIJCOSX, COSX-SCS-MP3, EOM
   Marcus Kettner         : VPT2
   Christian Kollmar      : KDIIS, OOCD, Brueckner-CCSD(T), CCSD density, CASPT2, CASPT2-K
   Simone Kossmann        : Meta GGA functionals, TD-DFT gradient, OOMP2, MP2 Hessian
   Martin Krupicka        : Initial AUTO-CI
   Lucas Lang             : DCDCAS
   Marvin Lechner         : AUTO-CI (C++ implementation), FIC-MRCC
   Dagmar Lenk            : GEPOL surface, SMD
   Dimitrios Liakos       : Extrapolation schemes; Compound Job, initial MDCI parallelization
   Dimitrios Manganas     : Further ROCIS development; embedding schemes
   Dimitrios Pantazis     : SARC Basis sets
   Anastasios Papadopoulos: AUTO-CI, single reference methods and gradients
   Taras Petrenko         : DFT Hessian,TD-DFT gradient, ASA, ECA, R-Raman, ABS, FL, XAS/XES, NRVS
   Peter Pinski           : DLPNO-MP2, DLPNO-MP2 Gradient
   Christoph Reimann      : Effective Core Potentials
   Marius Retegan         : Local ZFS, SOC
   Christoph Riplinger    : Optimizer, TS searches, QM/MM, DLPNO-CCSD(T), (RO)-DLPNO pert. Triples
   Tobias Risthaus        : Range-separated hybrids, TD-DFT gradient, RPA, STAB
   Michael Roemelt        : Original ROCIS implementation
   Masaaki Saitow         : Open-shell DLPNO-CCSD energy and density
   Barbara Sandhoefer     : DKH picture change effects
   Avijit Sen             : IP-ROCIS
   Kantharuban Sivalingam : CASSCF convergence, NEVPT2, FIC-MRCI
   Bernardo de Souza      : ESD, SOC TD-DFT
   Georgi Stoychev        : AutoAux, RI-MP2 NMR, DLPNO-MP2 response
   Willem Van den Heuvel  : Paramagnetic NMR
   Boris Wezisla          : Elementary symmetry handling
   Frank Wennmohs         : Technical directorship


 We gratefully acknowledge several colleagues who have allowed us to
 interface, adapt or use parts of their codes:
   Stefan Grimme, W. Hujo, H. Kruse, P. Pracht,  : VdW corrections, initial TS optimization,
                  C. Bannwarth, S. Ehlert          DFT functionals, gCP, sTDA/sTD-DF
   Ed Valeev, F. Pavosevic, A. Kumar             : LibInt (2-el integral package), F12 methods
   Garnet Chan, S. Sharma, J. Yang, R. Olivares  : DMRG
   Ulf Ekstrom                                   : XCFun DFT Library
   Mihaly Kallay                                 : mrcc  (arbitrary order and MRCC methods)
   Jiri Pittner, Ondrej Demel                    : Mk-CCSD
   Frank Weinhold                                : gennbo (NPA and NBO analysis)
   Christopher J. Cramer and Donald G. Truhlar   : smd solvation model
   Lars Goerigk                                  : TD-DFT with DH, B97 family of functionals
   V. Asgeirsson, H. Jonsson                     : NEB implementation
   FAccTs GmbH                                   : IRC, NEB, NEB-TS, DLPNO-Multilevel, CI-OPT
                                                   MM, QMMM, 2- and 3-layer-ONIOM, Crystal-QMMM,
                                                   LR-CPCM, SF, NACMEs, symmetry and pop. for TD-DFT,
                                                   nearIR, NL-DFT gradient (VV10), updates on ESD,
                                                   ML-optimized integration grids
   S Lehtola, MJT Oliveira, MAL Marques          : LibXC Library
   Liviu Ungur et al                             : ANISO software


 Your calculation uses the libint2 library for the computation of 2-el integrals
 For citations please refer to: http://libint.valeyev.net

 Your ORCA version has been built with support for libXC version: 5.1.0
 For citations please refer to: https://tddft.org/programs/libxc/

 This ORCA versions uses:
   CBLAS   interface :  Fast vector & matrix operations
   LAPACKE interface :  Fast linear algebra routines
   SCALAPACK package :  Parallel linear algebra routines
   Shared memory     :  Shared parallel matrices
   BLAS/LAPACK       :  OpenBLAS 0.3.15  USE64BITINT DYNAMIC_ARCH NO_AFFINITY Zen SINGLE_THREADED
        Core in use  :  Zen
   Copyright (c) 2011-2014, The OpenBLAS Project


Your calculation utilizes the SMD solvation module
Please cite in your paper:
A.V. Marenich, C.J. Cramer, D.G. Truhlar J. Phys. Chem. B, 113, (2009), 6378 

================================================================================

----- Orbital basis set information -----
Your calculation utilizes the basis: def2-SVP
   F. Weigend and R. Ahlrichs, Phys. Chem. Chem. Phys. 7, 3297 (2005).

----- AuxJ basis set information -----
Your calculation utilizes the auxiliary basis: def2/J
   F. Weigend, Phys. Chem. Chem. Phys. 8, 1057 (2006).

----- AuxC basis set information -----
Your calculation utilizes the auxiliary basis: def2-SVP/C
  H-La, Hf-Rn : A. Hellweg, C. Hattig, S. Hofener and W. Klopper, Theor. Chem. Acc. 117, 587 (2007).
        Ce-Lu : J. Chmela and M. E. Harding, Mol. Phys. (2018).

================================================================================
                                        WARNINGS
                       Please study these warnings very carefully!
================================================================================

INFO   : Checking CIS options ...
  ===> : (D) CORRECTION FOUND - SETTING MODE=3
  ===> : JK MODE FOUND - ACTIVATING RI-MP2 CODE
  ===> : MP2 AND CIS FOUND - CHECKING
WARNING: CIS(D) and MP2 runs must have the same orbital window
  ===> : adjusting orbital windows

WARNING: No MP2 level density has been requested!
         To caclulate MP2 level properties use
         %mp2 Density relaxed end
         or
         %mp2 Density unrelaxed end
         Otherwise for double-hybrid DFT only the energy is correct!

WARNING: The frozen-core approximation is turned on by default for 
         the MP2 part of double-hybrid DFT.

WARNING: CIS/ROCIS methods need fully converged wavefunctions
  ===> : Setting SCFConvForced true
         You can overwrite this default with %scf ConvForced false 


INFO   : the flag for use of the SHARK integral package has been found!

================================================================================
                                       INPUT FILE
================================================================================
NAME = Cu50_DPEPhos-pytri_M06L_def2SVP_B2PLYP_def2TZVP_RIJCOSX_CPCM.inp
|  1> %maxcore 16000
|  2> %pal
|  3>  nprocs= 8
|  4> end
|  5> ! RI-B2PLYP  def2-SVP def2/J def2-SVP/C RIJCOSX CPCM TIGHTSCF
|  6> 
|  7> %TDDFT 
|  8>     DCORR      4
|  9>     NROOTS    40
| 10>     TDA       FALSE
| 11> END
| 12> 
| 13> %CPCM
| 14>     SMD		TRUE
| 15>     SMDsolvent	"CH2Cl2"
| 16> END
| 17> 
| 18> * xyz 1 1
| 19> C                   1.46688700    2.36797500   -1.12315800
| 20> C                   1.19773800    1.47972700   -2.18209700
| 21> C                   1.96232300    1.48629300   -3.34741800
| 22> C                   3.00456100    2.40387300   -3.47233000
| 23> C                   3.27463300    3.31080600   -2.44823500
| 24> C                   2.51031500    3.28810700   -1.28191700
| 25> C                   0.84611100   -1.66525100   -2.14769300
| 26> C                   0.10003300   -0.58342000   -2.65183900
| 27> C                  -0.73570300   -0.72464900   -3.75572900
| 28> C                  -0.82548700   -1.95968900   -4.39459700
| 29> C                  -0.08100500   -3.04285100   -3.92732300
| 30> C                   0.74111100   -2.89614100   -2.81133400
| 31> C                  -1.10204500    2.72998200    0.21863200
| 32> C                  -1.56400800    3.25631800   -0.99294400
| 33> C                  -2.89299400    3.66493100   -1.11989700
| 34> C                  -3.76945500    3.55294300   -0.04138000
| 35> C                  -3.31487000    3.02915200    1.17132900
| 36> C                  -1.99195900    2.61443700    1.29855600
| 37> C                   1.37067900    3.26383900    1.60855000
| 38> C                   2.39835600    2.79465700    2.43899300
| 39> C                   3.05204500    3.66186700    3.31334100
| 40> C                   2.67399800    5.00326700    3.37535900
| 41> C                   1.64425900    5.47608500    2.55989700
| 42> C                   0.99569100    4.61324200    1.67796300
| 43> C                   2.04170400   -3.11777200    0.04572500
| 44> C                   0.89406900   -3.83573300    0.42641900
| 45> C                   1.00955400   -5.07330000    1.05168400
| 46> C                   2.27305100   -5.60479100    1.32467400
| 47> C                   3.41524900   -4.89469700    0.96013300
| 48> C                   3.30410300   -3.65723600    0.32178800
| 49> C                   3.44990100   -0.86943700   -1.13991700
| 50> C                   4.08516100    0.13537000   -0.39937500
| 51> C                   5.35098800    0.59022600   -0.76886800
| 52> C                   5.98734200    0.04570300   -1.88381200
| 53> C                   5.35844300   -0.95471200   -2.62901300
| 54> C                   4.09493600   -1.41174600   -2.26112400
| 55> H                   1.74438700    0.77488800   -4.14727200
| 56> H                   3.60775500    2.40689200   -4.38332100
| 57> H                   4.08925700    4.03075300   -2.55053600
| 58> H                   2.74391700    3.98328200   -0.47098600
| 59> H                  -1.30645400    0.14043800   -4.09971100
| 60> H                  -1.47963400   -2.07398100   -5.26174100
| 61> H                  -0.14538200   -4.01087300   -4.42864900
| 62> H                   1.30440400   -3.75667100   -2.43967600
| 63> H                  -3.24324100    4.07500600   -2.07041300
| 64> H                  -4.81034500    3.86923300   -0.14545700
| 65> H                  -3.99785900    2.93551100    2.01957900
| 66> H                  -1.64311800    2.18950600    2.24656400
| 67> H                   3.85341800    3.28696200    3.95429600
| 68> H                   3.18028500    5.68270100    4.06516400
| 69> H                   1.34552500    6.52594500    2.60900500
| 70> H                   0.19513800    4.99291500    1.03600900
| 71> H                   0.10916300   -5.62372000    1.33584200
| 72> H                   2.36471300   -6.57232800    1.82367200
| 73> H                   4.40599100   -5.30467600    1.17078800
| 74> H                   4.20977500   -3.11155900    0.04303200
| 75> H                   5.83654300    1.37855800   -0.18827300
| 76> H                   6.97670900    0.40441200   -2.17779700
| 77> H                   5.85609100   -1.38007400   -3.50384500
| 78> H                   3.60629100   -2.19459500   -2.84949300
| 79> O                   0.13316500    0.63376700   -2.00107900
| 80> P                   0.59093900    2.08373300    0.45431600
| 81> P                   1.79852300   -1.42758600   -0.59831700
| 82> H                   2.68540700    1.73836900    2.39709800
| 83> H                  -0.88518100    3.35288700   -1.84504700
| 84> H                   3.57363700    0.56917800    0.46774400
| 85> H                  -0.09854200   -3.41398900    0.23217800
| 86> Cu                  0.56426300   -0.15140400    0.85571700
| 87> C                  -0.95375900   -1.64827400    2.90368500
| 88> C                  -1.25748900   -2.43960500    4.01523800
| 89> C                  -0.23772200   -2.78212500    4.89550800
| 90> C                   1.05707200   -2.33069600    4.64059100
| 91> C                   1.27572800   -1.53941400    3.51841400
| 92> H                  -2.27949900   -2.78910500    4.17195300
| 93> H                   1.88792500   -2.58370600    5.30037000
| 94> H                   2.27661600   -1.16453200    3.28178500
| 95> N                   0.29977700   -1.19524500    2.67002100
| 96> H                  -0.44942600   -3.40283300    5.76826400
| 97> C                  -1.93163300   -1.28156700    1.88784800
| 98> C                  -3.30782600   -1.37136700    1.80446200
| 99> H                  -4.06154100   -1.72406100    2.50034100
|100> N                  -1.49322600   -0.72511400    0.72215600
|101> N                  -2.49176800   -0.47304000   -0.06545300
|102> N                  -3.60770300   -0.85901500    0.58462300
|103> C                  -4.88222700   -0.69022200   -0.02160800
|104> C                  -6.00534500   -1.31703700    0.51966300
|105> C                  -5.00180300    0.11520200   -1.15820800
|106> C                  -7.24840500   -1.12609400   -0.07706500
|107> H                  -5.91859900   -1.95914200    1.39765800
|108> C                  -6.25114600    0.28862800   -1.74041900
|109> H                  -4.11935900    0.60574700   -1.57034300
|110> C                  -7.40026000   -0.32376900   -1.21578800
|111> H                  -8.12387100   -1.61866700    0.35381700
|112> H                  -6.33931000    0.92444000   -2.62558700
|113> C                  -8.73198100   -0.14022600   -1.86618700
|114> H                  -8.81512500   -0.74864900   -2.78044500
|115> H                  -9.55579200   -0.43607700   -1.20470600
|116> H                  -8.89461100    0.90203700   -2.17348600
|117> *
|118> 
|119>                          ****END OF INPUT****
================================================================================

                       ****************************
                       * Single Point Calculation *
                       ****************************

---------------------------------
CARTESIAN COORDINATES (ANGSTROEM)
---------------------------------
  C      1.466887    2.367975   -1.123158
  C      1.197738    1.479727   -2.182097
  C      1.962323    1.486293   -3.347418
  C      3.004561    2.403873   -3.472330
  C      3.274633    3.310806   -2.448235
  C      2.510315    3.288107   -1.281917
  C      0.846111   -1.665251   -2.147693
  C      0.100033   -0.583420   -2.651839
  C     -0.735703   -0.724649   -3.755729
  C     -0.825487   -1.959689   -4.394597
  C     -0.081005   -3.042851   -3.927323
  C      0.741111   -2.896141   -2.811334
  C     -1.102045    2.729982    0.218632
  C     -1.564008    3.256318   -0.992944
  C     -2.892994    3.664931   -1.119897
  C     -3.769455    3.552943   -0.041380
  C     -3.314870    3.029152    1.171329
  C     -1.991959    2.614437    1.298556
  C      1.370679    3.263839    1.608550
  C      2.398356    2.794657    2.438993
  C      3.052045    3.661867    3.313341
  C      2.673998    5.003267    3.375359
  C      1.644259    5.476085    2.559897
  C      0.995691    4.613242    1.677963
  C      2.041704   -3.117772    0.045725
  C      0.894069   -3.835733    0.426419
  C      1.009554   -5.073300    1.051684
  C      2.273051   -5.604791    1.324674
  C      3.415249   -4.894697    0.960133
  C      3.304103   -3.657236    0.321788
  C      3.449901   -0.869437   -1.139917
  C      4.085161    0.135370   -0.399375
  C      5.350988    0.590226   -0.768868
  C      5.987342    0.045703   -1.883812
  C      5.358443   -0.954712   -2.629013
  C      4.094936   -1.411746   -2.261124
  H      1.744387    0.774888   -4.147272
  H      3.607755    2.406892   -4.383321
  H      4.089257    4.030753   -2.550536
  H      2.743917    3.983282   -0.470986
  H     -1.306454    0.140438   -4.099711
  H     -1.479634   -2.073981   -5.261741
  H     -0.145382   -4.010873   -4.428649
  H      1.304404   -3.756671   -2.439676
  H     -3.243241    4.075006   -2.070413
  H     -4.810345    3.869233   -0.145457
  H     -3.997859    2.935511    2.019579
  H     -1.643118    2.189506    2.246564
  H      3.853418    3.286962    3.954296
  H      3.180285    5.682701    4.065164
  H      1.345525    6.525945    2.609005
  H      0.195138    4.992915    1.036009
  H      0.109163   -5.623720    1.335842
  H      2.364713   -6.572328    1.823672
  H      4.405991   -5.304676    1.170788
  H      4.209775   -3.111559    0.043032
  H      5.836543    1.378558   -0.188273
  H      6.976709    0.404412   -2.177797
  H      5.856091   -1.380074   -3.503845
  H      3.606291   -2.194595   -2.849493
  O      0.133165    0.633767   -2.001079
  P      0.590939    2.083733    0.454316
  P      1.798523   -1.427586   -0.598317
  H      2.685407    1.738369    2.397098
  H     -0.885181    3.352887   -1.845047
  H      3.573637    0.569178    0.467744
  H     -0.098542   -3.413989    0.232178
  Cu     0.564263   -0.151404    0.855717
  C     -0.953759   -1.648274    2.903685
  C     -1.257489   -2.439605    4.015238
  C     -0.237722   -2.782125    4.895508
  C      1.057072   -2.330696    4.640591
  C      1.275728   -1.539414    3.518414
  H     -2.279499   -2.789105    4.171953
  H      1.887925   -2.583706    5.300370
  H      2.276616   -1.164532    3.281785
  N      0.299777   -1.195245    2.670021
  H     -0.449426   -3.402833    5.768264
  C     -1.931633   -1.281567    1.887848
  C     -3.307826   -1.371367    1.804462
  H     -4.061541   -1.724061    2.500341
  N     -1.493226   -0.725114    0.722156
  N     -2.491768   -0.473040   -0.065453
  N     -3.607703   -0.859015    0.584623
  C     -4.882227   -0.690222   -0.021608
  C     -6.005345   -1.317037    0.519663
  C     -5.001803    0.115202   -1.158208
  C     -7.248405   -1.126094   -0.077065
  H     -5.918599   -1.959142    1.397658
  C     -6.251146    0.288628   -1.740419
  H     -4.119359    0.605747   -1.570343
  C     -7.400260   -0.323769   -1.215788
  H     -8.123871   -1.618667    0.353817
  H     -6.339310    0.924440   -2.625587
  C     -8.731981   -0.140226   -1.866187
  H     -8.815125   -0.748649   -2.780445
  H     -9.555792   -0.436077   -1.204706
  H     -8.894611    0.902037   -2.173486

----------------------------
CARTESIAN COORDINATES (A.U.)
----------------------------
  NO LB      ZA    FRAG     MASS         X           Y           Z
   0 C     6.0000    0    12.011    2.772015    4.474824   -2.122461
   1 C     6.0000    0    12.011    2.263397    2.796279   -4.123566
   2 C     6.0000    0    12.011    3.708253    2.808687   -6.325703
   3 C     6.0000    0    12.011    5.677797    4.542662   -6.561753
   4 C     6.0000    0    12.011    6.188160    6.256517   -4.626494
   5 C     6.0000    0    12.011    4.743808    6.213622   -2.422472
   6 C     6.0000    0    12.011    1.598918   -3.146868   -4.058552
   7 C     6.0000    0    12.011    0.189035   -1.102504   -5.011249
   8 C     6.0000    0    12.011   -1.390277   -1.369388   -7.097299
   9 C     6.0000    0    12.011   -1.559944   -3.703276   -8.304585
  10 C     6.0000    0    12.011   -0.153077   -5.750155   -7.421565
  11 C     6.0000    0    12.011    1.400497   -5.472913   -5.312651
  12 C     6.0000    0    12.011   -2.082563    5.158918    0.413155
  13 C     6.0000    0    12.011   -2.955547    6.153549   -1.876392
  14 C     6.0000    0    12.011   -5.466966    6.925716   -2.116299
  15 C     6.0000    0    12.011   -7.123238    6.714089   -0.078197
  16 C     6.0000    0    12.011   -6.264196    5.724268    2.213491
  17 C     6.0000    0    12.011   -3.764257    4.940570    2.453915
  18 C     6.0000    0    12.011    2.590208    6.167762    3.039719
  19 C     6.0000    0    12.011    4.532236    5.281136    4.609029
  20 C     6.0000    0    12.011    5.767529    6.919926    6.261307
  21 C     6.0000    0    12.011    5.053124    9.454804    6.378504
  22 C     6.0000    0    12.011    3.107199   10.348301    4.837504
  23 C     6.0000    0    12.011    1.881583    8.717764    3.170891
  24 C     6.0000    0    12.011    3.858261   -5.891735    0.086408
  25 C     6.0000    0    12.011    1.689546   -7.248485    0.805815
  26 C     6.0000    0    12.011    1.907781   -9.587148    1.987395
  27 C     6.0000    0    12.011    4.295444  -10.591520    2.503271
  28 C     6.0000    0    12.011    6.453885   -9.249637    1.814388
  29 C     6.0000    0    12.011    6.243850   -6.911174    0.608091
  30 C     6.0000    0    12.011    6.519368   -1.642998   -2.154131
  31 C     6.0000    0    12.011    7.719836    0.255812   -0.754709
  32 C     6.0000    0    12.011   10.111902    1.115365   -1.452950
  33 C     6.0000    0    12.011   11.314437    0.086366   -3.559889
  34 C     6.0000    0    12.011   10.125990   -1.804144   -4.968115
  35 C     6.0000    0    12.011    7.738308   -2.667813   -4.272905
  36 H     1.0000    0     1.008    3.296414    1.464326   -7.837208
  37 H     1.0000    0     1.008    6.817669    4.548367   -8.283276
  38 H     1.0000    0     1.008    7.727576    7.617019   -4.819815
  39 H     1.0000    0     1.008    5.185252    7.527312   -0.890035
  40 H     1.0000    0     1.008   -2.468840    0.265389   -7.747331
  41 H     1.0000    0     1.008   -2.796103   -3.919256   -9.943249
  42 H     1.0000    0     1.008   -0.274732   -7.579452   -8.368934
  43 H     1.0000    0     1.008    2.464966   -7.099079   -4.610319
  44 H     1.0000    0     1.008   -6.128837    7.700645   -3.912514
  45 H     1.0000    0     1.008   -9.090235    7.311791   -0.274874
  46 H     1.0000    0     1.008   -7.554859    5.547312    3.816451
  47 H     1.0000    0     1.008   -3.105043    4.137567    4.245391
  48 H     1.0000    0     1.008    7.281905    6.211458    7.472536
  49 H     1.0000    0     1.008    6.009868   10.738749    7.682047
  50 H     1.0000    0     1.008    2.542674   12.332249    4.930305
  51 H     1.0000    0     1.008    0.368757    9.435242    1.957773
  52 H     1.0000    0     1.008    0.206288  -10.627291    2.524376
  53 H     1.0000    0     1.008    4.468660  -12.419900    3.446241
  54 H     1.0000    0     1.008    8.326116  -10.024385    2.212469
  55 H     1.0000    0     1.008    7.955322   -5.879994    0.081319
  56 H     1.0000    0     1.008   11.029468    2.605097   -0.355784
  57 H     1.0000    0     1.008   13.184069    0.764228   -4.115440
  58 H     1.0000    0     1.008   11.066408   -2.607962   -6.621307
  59 H     1.0000    0     1.008    6.814902   -4.147184   -5.384761
  60 O     8.0000    0    15.999    0.251645    1.197646   -3.781491
  61 P    15.0000    0    30.974    1.116713    3.937685    0.858533
  62 P    15.0000    0    30.974    3.398716   -2.697747   -1.130655
  63 H     1.0000    0     1.008    5.074684    3.285041    4.529859
  64 H     1.0000    0     1.008   -1.672750    6.336038   -3.486634
  65 H     1.0000    0     1.008    6.753195    1.075591    0.883908
  66 H     1.0000    0     1.008   -0.186217   -6.451504    0.438753
  67 Cu   29.0000    0    63.550    1.066303   -0.286112    1.617071
  68 C     6.0000    0    12.011   -1.802343   -3.114786    5.487169
  69 C     6.0000    0    12.011   -2.376310   -4.610185    7.587700
  70 C     6.0000    0    12.011   -0.449229   -5.257454    9.251169
  71 C     6.0000    0    12.011    1.997577   -4.404377    8.769446
  72 C     6.0000    0    12.011    2.410777   -2.909071    6.648839
  73 H     1.0000    0     1.008   -4.307629   -5.270645    7.883849
  74 H     1.0000    0     1.008    3.567661   -4.882497   10.016248
  75 H     1.0000    0     1.008    4.302181   -2.200647    6.201675
  76 N     7.0000    0    14.007    0.566496   -2.258686    5.045608
  77 H     1.0000    0     1.008   -0.849292   -6.430422   10.900439
  78 C     6.0000    0    12.011   -3.650257   -2.421811    3.567516
  79 C     6.0000    0    12.011   -6.250885   -2.591508    3.409939
  80 H     1.0000    0     1.008   -7.675200   -3.258003    4.724960
  81 N     7.0000    0    14.007   -2.821788   -1.370267    1.364677
  82 N     7.0000    0    14.007   -4.708759   -0.893916   -0.123688
  83 N     7.0000    0    14.007   -6.817571   -1.623303    1.104777
  84 C     6.0000    0    12.011   -9.226072   -1.304331   -0.040833
  85 C     6.0000    0    12.011  -11.348457   -2.488839    0.982021
  86 C     6.0000    0    12.011   -9.452038    0.217700   -2.188696
  87 C     6.0000    0    12.011  -13.697500   -2.128009   -0.145632
  88 H     1.0000    0     1.008  -11.184531   -3.702242    2.641191
  89 C     6.0000    0    12.011  -11.812954    0.545428   -3.288915
  90 H     1.0000    0     1.008   -7.784460    1.144696   -2.967518
  91 C     6.0000    0    12.011  -13.984465   -0.611835   -2.297506
  92 H     1.0000    0     1.008  -15.351891   -3.058837    0.668617
  93 H     1.0000    0     1.008  -11.979560    1.746938   -4.961640
  94 C     6.0000    0    12.011  -16.501053   -0.264989   -3.526582
  95 H     1.0000    0     1.008  -16.658172   -1.414742   -5.254280
  96 H     1.0000    0     1.008  -18.057830   -0.824066   -2.276564
  97 H     1.0000    0     1.008  -16.808379    1.704603   -4.107293

--------------------------------
INTERNAL COORDINATES (ANGSTROEM)
--------------------------------
 C      0   0   0     0.000000000000     0.00000000     0.00000000
 C      1   0   0     1.408111323520     0.00000000     0.00000000
 C      2   1   0     1.393774145126   121.39509119     0.00000000
 C      3   2   1     1.394208059361   119.21528953   359.17749642
 C      4   3   2     1.394358964076   120.46829974   359.58209261
 C      5   4   3     1.394630749284   119.83360649     0.94993817
 C      2   1   3     3.164760939286   129.78636276   128.47253469
 C      7   2   1     1.407534683040    44.86298418   128.76660077
 C      8   7   2     1.391751926256   121.62759905   152.05943505
 C      9   8   7     1.393390573271   119.49201671   359.02235853
 C     10   9   8     1.394933101494   120.01824958     0.00000000
 C     11  10   9     1.393854364587   120.08325483     0.78112849
 C      1   2   3     2.920763785857   104.80595165   152.63152099
 C     13   1   2     1.399412663242    86.51594362   298.56336903
 C     14  13   1     1.396168126041   120.20051586   178.29100714
 C     15  14  13     1.394246791624   120.30029748     0.04897891
 C     16  15  14     1.397020992178   119.80534359     0.00000000
 C     17  16  15     1.392217208152   120.01396372   359.67476362
 C      1   2   3     2.876466040652   154.72269655   201.19177253
 C     19   1   2     1.402101045468   115.70543998    87.35017359
 C     20  19   1     1.394219106857   120.46067470   135.47426538
 C     21  20  19     1.395033951749   119.92805440     0.68920242
 C     22  21  20     1.396029205529   119.97284067   359.84544428
 C     23  22  21     1.393896005314   120.20801945   359.68985156
 C      7   2   1     2.889695900923   117.50299668   337.20218840
 C     25   7   2     1.406222604136    97.14985657   128.13832469
 C     26  25   7     1.391353723874   120.53396255   152.68182250
 C     27  26  25     1.397651920970   120.06968938     0.94664257
 C     28  27  26     1.393463275699   119.74388276   359.56812803
 C     29  28  27     1.396834814451   120.38302126   359.87597173
 C      7   2   1     2.903214555088    68.39069164   301.16503269
 C     31   7   2     1.400569465829   141.90513505    35.36534344
 C     32  31   7     1.394896788911   120.36375605   219.03517593
 C     33  32  31     1.394471883539   119.90570557     0.19935705
 C     34  33  32     1.397021350884   120.04587376   359.94745973
 C     35  34  33     1.393080160122   120.15681794     0.00000000
 H      3   2   1     1.092409994204   119.97821441   178.90778345
 H      4   3   2     1.092591743552   119.28961450   179.70860270
 H      5   4   3     1.091971354380   120.29961208   180.22819101
 H      6   5   4     1.093365109097   119.52633803   178.33709637
 H      9   8   7     1.091996262766   118.90229769   179.02950228
 H     10   9   8     1.092204044860   119.69374032   180.05502015
 H     11  10   9     1.092034225145   120.20360560   180.29583494
 H     12  11  10     1.093590670092   119.54344778   178.69664909
 H     15  14  13     1.092847259634   119.60217793   179.97173385
 H     16  15  14     1.092851031993   120.12069335   180.29349992
 H     17  16  15     1.093055658922   120.16222845   180.21226401
 H     18  17  16     1.095890307515   119.80351742   180.95767133
 H     21  20  19     1.092508927277   119.89349729   180.16910254
 H     22  21  20     1.092606070251   120.02871815   179.55751989
 H     23  22  21     1.092638832378   120.05584508   179.86040153
 H     24  23  22     1.094139676117   119.79274991   180.50704281
 H     27  26  25     1.092891530869   119.76422986   180.43109142
 H     28  27  26     1.092487424466   120.12203526   179.45023087
 H     29  28  27     1.092715891726   120.10336854   179.99589051
 H     30  29  28     1.093485284514   119.51715146   179.92842781
 H     33  32  31     1.092850197545   119.84707920   179.65956476
 H     34  33  32     1.092678538087   120.00800738   179.68262577
 H     35  34  33     1.092665269500   120.05443085   179.87766279
 H     36  35  34     1.094442585514   119.84465954   179.90530623
 O      2   1   3     1.371762191582   115.98379671   181.01120940
 P     19   1   2     1.825623390952    38.05114789   343.84954019
 P     25   7   2     1.825008441383    37.95264883     1.81185304
 H     20  19   1     1.095398469312   119.47866947   315.43685053
 H     14  13   1     1.093714400700   120.18792648   358.09936064
 H     32  31   7     1.096239729074   119.37287619    38.38236278
 H     26  25   7     1.095844042251   119.65339133   332.42692162
 Cu    62  19   1     2.271050809768   121.96902350   122.20276862
 C     68  62  19     2.956211007085   128.81563123    70.26114424
 C     69  68  62     1.397857909900   161.64016263   244.58250011
 C     70  69  68     1.390007178970   118.92513794     9.01885428
 C     71  70  69     1.394726611693   119.04996246   359.75691582
 C     72  71  70     1.390402412681   118.53574170     0.70590444
 H     70  69  68     1.091427634488   119.92855820   189.87495586
 H     72  71  70     1.090705779094   121.43529616   180.56034964
 H     73  72  71     1.094671907975   120.87366710   180.01502471
 N     73  72  71     1.338171639742   122.91303984   359.78906588
 H     71  70  69     1.091695946872   120.27262626   180.27117180
 C     69  68  62     1.456927038082    74.58434856    74.83861442
 C     79  69  68     1.381638316726   133.96873707   187.96747676
 H     80  79  69     1.084770455673   132.41475205     1.96525175
 N     79  69  68     1.364066889020   118.86879192     8.34814884
 N     82  79  69     1.296516627013   110.54340985   179.51204888
 N     83  82  79     1.347919296778   106.79644147     0.31299993
 C     84  83  82     1.421414270642   120.17501807   179.09858346
 C     85  84  83     1.395444510394   120.19201749   167.40578844
 C     85  84  83     1.398165154605   119.45912695   346.99279351
 C     86  85  84     1.392027908784   119.39479134   179.15474527
 H     86  85  84     1.091191513698   120.82637686   358.66870627
 C     87  85  84     1.389209904099   119.30894469   180.63096990
 H     87  85  84     1.090503126261   119.81179297     0.04453921
 C     88  86  85     1.401240670755   121.57937743     0.36323502
 H     88  86  85     1.093036218709   118.97538890   180.12639752
 H     90  87  85     1.093413086836   118.97204430   179.63893087
 C     92  88  86     1.493381302244   121.39538557   178.95571893
 H     95  92  88     1.101344252370   111.15933982   257.04710805
 H     95  92  88     1.097155181040   111.95385885    16.84162844
 H     95  92  88     1.098723510930   111.73982365   138.46757382

---------------------------
INTERNAL COORDINATES (A.U.)
---------------------------
 C      0   0   0     0.000000000000     0.00000000     0.00000000
 C      1   0   0     2.660944767527     0.00000000     0.00000000
 C      2   1   0     2.633851426829   121.39509119     0.00000000
 C      3   2   1     2.634671405899   119.21528953   359.17749642
 C      4   3   2     2.634956574481   120.46829974   359.58209261
 C      5   4   3     2.635470174093   119.83360649     0.94993817
 C      2   1   3     5.980531454582   129.78636276   128.47253469
 C      7   2   1     2.659855074942    44.86298418   128.76660077
 C      8   7   2     2.630029986981   121.62759905   152.05943505
 C      9   8   7     2.633126581069   119.49201671   359.02235853
 C     10   9   8     2.636041536965   120.01824958     0.00000000
 C     11  10   9     2.634003019639   120.08325483     0.78112849
 C      1   2   3     5.519443657145   104.80595165   152.63152099
 C     13   1   2     2.644506681868    86.51594362   298.56336903
 C     14  13   1     2.638375395128   120.20051586   178.29100714
 C     15  14  13     2.634744599268   120.30029748     0.04897891
 C     16  15  14     2.639987078556   119.80534359     0.00000000
 C     17  16  15     2.630909242340   120.01396372   359.67476362
 C      1   2   3     5.435733050357   154.72269655   201.19177253
 C     19   1   2     2.649586988019   115.70543998    87.35017359
 C     20  19   1     2.634692282640   120.46067470   135.47426538
 C     21  20  19     2.636232116328   119.92805440     0.68920242
 C     22  21  20     2.638112873405   119.97284067   359.84544428
 C     23  22  21     2.634081709209   120.20801945   359.68985156
 C      7   2   1     5.460733863060   117.50299668   337.20218840
 C     25   7   2     2.657375605146    97.14985657   128.13832469
 C     26  25   7     2.629277493534   120.53396255   152.68182250
 C     27  26  25     2.641179361181   120.06968938     0.94664257
 C     28  27  26     2.633263968747   119.74388276   359.56812803
 C     29  28  27     2.639635253639   120.38302126   359.87597173
 C      7   2   1     5.486280417129    68.39069164   301.16503269
 C     31   7   2     2.646692721950   141.90513505    35.36534344
 C     32  31   7     2.635972916128   120.36375605   219.03517593
 C     33  32  31     2.635169961342   119.90570557     0.19935705
 C     34  33  32     2.639987756412   120.04587376   359.94745973
 C     35  34  33     2.632539985230   120.15681794     0.00000000
 H      3   2   1     2.064355715004   119.97821441   178.90778345
 H      4   3   2     2.064699171497   119.28961450   179.70860270
 H      5   4   3     2.063526805865   120.29961208   180.22819101
 H      6   5   4     2.066160620578   119.52633803   178.33709637
 H      9   8   7     2.063573875892   118.90229769   179.02950228
 H     10   9   8     2.063966527147   119.69374032   180.05502015
 H     11  10   9     2.063645614394   120.20360560   180.29583494
 H     12  11  10     2.066586869086   119.54344778   178.69664909
 H     15  14  13     2.065182026915   119.60217793   179.97173385
 H     16  15  14     2.065189155641   120.12069335   180.29349992
 H     17  16  15     2.065575844496   120.16222845   180.21226401
 H     18  17  16     2.070932554023   119.80351742   180.95767133
 H     21  20  19     2.064542671417   119.89349729   180.16910254
 H     22  21  20     2.064726245035   120.02871815   179.55751989
 H     23  22  21     2.064788156482   120.05584508   179.86040153
 H     24  23  22     2.067624340119   119.79274991   180.50704281
 H     27  26  25     2.065265687424   119.76422986   180.43109142
 H     28  27  26     2.064502036994   120.12203526   179.45023087
 H     29  28  27     2.064933777545   120.10336854   179.99589051
 H     30  29  28     2.066387719205   119.51715146   179.92842781
 H     33  32  31     2.065187578762   119.84707920   179.65956476
 H     34  33  32     2.064863189397   120.00800738   179.68262577
 H     35  34  33     2.064838115403   120.05443085   179.87766279
 H     36  35  34     2.068196755923   119.84465954   179.90530623
 O      2   1   3     2.592254862957   115.98379671   181.01120940
 P     19   1   2     3.449928232580    38.05114789   343.84954019
 P     25   7   2     3.448766146309    37.95264883     1.81185304
 H     20  19   1     2.070003114515   119.47866947   315.43685053
 H     14  13   1     2.066820686049   120.18792648   358.09936064
 H     32  31   7     2.071592865075   119.37287619    38.38236278
 H     26  25   7     2.070845125344   119.65339133   332.42692162
 Cu    62  19   1     4.291664066681   121.96902350   122.20276862
 C     68  62  19     5.586429197473   128.81563123    70.26114424
 C     69  68  62     2.641568623847   161.64016263   244.58250011
 C     70  69  68     2.626732892438   118.92513794     9.01885428
 C     71  70  69     2.635651327793   119.04996246   359.75691582
 C     72  71  70     2.627479775910   118.53574170     0.70590444
 H     70  69  68     2.062499324177   119.92855820   189.87495586
 H     72  71  70     2.061135215174   121.43529616   180.56034964
 H     73  72  71     2.068630112569   120.87366710   180.01502471
 N     73  72  71     2.528777919294   122.91303984   359.78906588
 H     71  70  69     2.063006361099   120.27262626   180.27117180
 C     69  68  62     2.753193099080    74.58434856    74.83861442
 C     79  69  68     2.610918034744   133.96873707   187.96747676
 H     80  79  69     2.049919079392   132.41475205     1.96525175
 N     79  69  68     2.577712848599   118.86879192     8.34814884
 N     82  79  69     2.450061353130   110.54340985   179.51204888
 N     83  82  79     2.547198321538   106.79644147     0.31299993
 C     84  83  82     2.686083694362   120.17501807   179.09858346
 C     85  84  83     2.637007959729   120.19201749   167.40578844
 C     85  84  83     2.642149232195   119.45912695   346.99279351
 C     86  85  84     2.630551518376   119.39479134   179.15474527
 H     86  85  84     2.062053120548   120.82637686   358.66870627
 C     87  85  84     2.625226261278   119.30894469   180.63096990
 H     87  85  84     2.060752256819   119.81179297     0.04453921
 C     88  86  85     2.647961115440   121.57937743     0.36323502
 H     88  86  85     2.065539107816   118.97538890   180.12639752
 H     90  87  85     2.066251285365   118.97204430   179.63893087
 C     92  88  86     2.822081674759   121.39538557   178.95571893
 H     95  92  88     2.081239016148   111.15933982   257.04710805
 H     95  92  88     2.073322818578   111.95385885    16.84162844
 H     95  92  88     2.076286532558   111.73982365   138.46757382

---------------------
BASIS SET INFORMATION
---------------------
There are 6 groups of distinct atoms

 Group   1 Type C   : 7s4p1d contracted to 3s2p1d pattern {511/31/1}
 Group   2 Type H   : 4s1p contracted to 2s1p pattern {31/1}
 Group   3 Type O   : 7s4p1d contracted to 3s2p1d pattern {511/31/1}
 Group   4 Type P   : 10s7p1d contracted to 4s3p1d pattern {5311/511/1}
 Group   5 Type Cu  : 14s9p5d1f contracted to 5s3p2d1f pattern {63311/531/41/1}
 Group   6 Type N   : 7s4p1d contracted to 3s2p1d pattern {511/31/1}

Atom   0C    basis set group =>   1
Atom   1C    basis set group =>   1
Atom   2C    basis set group =>   1
Atom   3C    basis set group =>   1
Atom   4C    basis set group =>   1
Atom   5C    basis set group =>   1
Atom   6C    basis set group =>   1
Atom   7C    basis set group =>   1
Atom   8C    basis set group =>   1
Atom   9C    basis set group =>   1
Atom  10C    basis set group =>   1
Atom  11C    basis set group =>   1
Atom  12C    basis set group =>   1
Atom  13C    basis set group =>   1
Atom  14C    basis set group =>   1
Atom  15C    basis set group =>   1
Atom  16C    basis set group =>   1
Atom  17C    basis set group =>   1
Atom  18C    basis set group =>   1
Atom  19C    basis set group =>   1
Atom  20C    basis set group =>   1
Atom  21C    basis set group =>   1
Atom  22C    basis set group =>   1
Atom  23C    basis set group =>   1
Atom  24C    basis set group =>   1
Atom  25C    basis set group =>   1
Atom  26C    basis set group =>   1
Atom  27C    basis set group =>   1
Atom  28C    basis set group =>   1
Atom  29C    basis set group =>   1
Atom  30C    basis set group =>   1
Atom  31C    basis set group =>   1
Atom  32C    basis set group =>   1
Atom  33C    basis set group =>   1
Atom  34C    basis set group =>   1
Atom  35C    basis set group =>   1
Atom  36H    basis set group =>   2
Atom  37H    basis set group =>   2
Atom  38H    basis set group =>   2
Atom  39H    basis set group =>   2
Atom  40H    basis set group =>   2
Atom  41H    basis set group =>   2
Atom  42H    basis set group =>   2
Atom  43H    basis set group =>   2
Atom  44H    basis set group =>   2
Atom  45H    basis set group =>   2
Atom  46H    basis set group =>   2
Atom  47H    basis set group =>   2
Atom  48H    basis set group =>   2
Atom  49H    basis set group =>   2
Atom  50H    basis set group =>   2
Atom  51H    basis set group =>   2
Atom  52H    basis set group =>   2
Atom  53H    basis set group =>   2
Atom  54H    basis set group =>   2
Atom  55H    basis set group =>   2
Atom  56H    basis set group =>   2
Atom  57H    basis set group =>   2
Atom  58H    basis set group =>   2
Atom  59H    basis set group =>   2
Atom  60O    basis set group =>   3
Atom  61P    basis set group =>   4
Atom  62P    basis set group =>   4
Atom  63H    basis set group =>   2
Atom  64H    basis set group =>   2
Atom  65H    basis set group =>   2
Atom  66H    basis set group =>   2
Atom  67Cu   basis set group =>   5
Atom  68C    basis set group =>   1
Atom  69C    basis set group =>   1
Atom  70C    basis set group =>   1
Atom  71C    basis set group =>   1
Atom  72C    basis set group =>   1
Atom  73H    basis set group =>   2
Atom  74H    basis set group =>   2
Atom  75H    basis set group =>   2
Atom  76N    basis set group =>   6
Atom  77H    basis set group =>   2
Atom  78C    basis set group =>   1
Atom  79C    basis set group =>   1
Atom  80H    basis set group =>   2
Atom  81N    basis set group =>   6
Atom  82N    basis set group =>   6
Atom  83N    basis set group =>   6
Atom  84C    basis set group =>   1
Atom  85C    basis set group =>   1
Atom  86C    basis set group =>   1
Atom  87C    basis set group =>   1
Atom  88H    basis set group =>   2
Atom  89C    basis set group =>   1
Atom  90H    basis set group =>   2
Atom  91C    basis set group =>   1
Atom  92H    basis set group =>   2
Atom  93H    basis set group =>   2
Atom  94C    basis set group =>   1
Atom  95H    basis set group =>   2
Atom  96H    basis set group =>   2
Atom  97H    basis set group =>   2
---------------------------------
AUXILIARY/J BASIS SET INFORMATION
---------------------------------
There are 6 groups of distinct atoms

 Group   1 Type C   : 12s5p4d2f1g contracted to 6s4p3d1f1g pattern {711111/2111/211/2/1}
 Group   2 Type H   : 5s2p1d contracted to 3s1p1d pattern {311/2/1}
 Group   3 Type O   : 12s5p4d2f1g contracted to 6s4p3d1f1g pattern {711111/2111/211/2/1}
 Group   4 Type P   : 14s5p5d2f1g contracted to 8s4p3d1f1g pattern {71111111/2111/311/2/1}
 Group   5 Type Cu  : 19s5p5d3f3g contracted to 8s5p4d3f3g pattern {121111111/11111/2111/111/111}
 Group   6 Type N   : 12s5p4d2f1g contracted to 6s4p3d1f1g pattern {711111/2111/211/2/1}

Atom   0C    basis set group =>   1
Atom   1C    basis set group =>   1
Atom   2C    basis set group =>   1
Atom   3C    basis set group =>   1
Atom   4C    basis set group =>   1
Atom   5C    basis set group =>   1
Atom   6C    basis set group =>   1
Atom   7C    basis set group =>   1
Atom   8C    basis set group =>   1
Atom   9C    basis set group =>   1
Atom  10C    basis set group =>   1
Atom  11C    basis set group =>   1
Atom  12C    basis set group =>   1
Atom  13C    basis set group =>   1
Atom  14C    basis set group =>   1
Atom  15C    basis set group =>   1
Atom  16C    basis set group =>   1
Atom  17C    basis set group =>   1
Atom  18C    basis set group =>   1
Atom  19C    basis set group =>   1
Atom  20C    basis set group =>   1
Atom  21C    basis set group =>   1
Atom  22C    basis set group =>   1
Atom  23C    basis set group =>   1
Atom  24C    basis set group =>   1
Atom  25C    basis set group =>   1
Atom  26C    basis set group =>   1
Atom  27C    basis set group =>   1
Atom  28C    basis set group =>   1
Atom  29C    basis set group =>   1
Atom  30C    basis set group =>   1
Atom  31C    basis set group =>   1
Atom  32C    basis set group =>   1
Atom  33C    basis set group =>   1
Atom  34C    basis set group =>   1
Atom  35C    basis set group =>   1
Atom  36H    basis set group =>   2
Atom  37H    basis set group =>   2
Atom  38H    basis set group =>   2
Atom  39H    basis set group =>   2
Atom  40H    basis set group =>   2
Atom  41H    basis set group =>   2
Atom  42H    basis set group =>   2
Atom  43H    basis set group =>   2
Atom  44H    basis set group =>   2
Atom  45H    basis set group =>   2
Atom  46H    basis set group =>   2
Atom  47H    basis set group =>   2
Atom  48H    basis set group =>   2
Atom  49H    basis set group =>   2
Atom  50H    basis set group =>   2
Atom  51H    basis set group =>   2
Atom  52H    basis set group =>   2
Atom  53H    basis set group =>   2
Atom  54H    basis set group =>   2
Atom  55H    basis set group =>   2
Atom  56H    basis set group =>   2
Atom  57H    basis set group =>   2
Atom  58H    basis set group =>   2
Atom  59H    basis set group =>   2
Atom  60O    basis set group =>   3
Atom  61P    basis set group =>   4
Atom  62P    basis set group =>   4
Atom  63H    basis set group =>   2
Atom  64H    basis set group =>   2
Atom  65H    basis set group =>   2
Atom  66H    basis set group =>   2
Atom  67Cu   basis set group =>   5
Atom  68C    basis set group =>   1
Atom  69C    basis set group =>   1
Atom  70C    basis set group =>   1
Atom  71C    basis set group =>   1
Atom  72C    basis set group =>   1
Atom  73H    basis set group =>   2
Atom  74H    basis set group =>   2
Atom  75H    basis set group =>   2
Atom  76N    basis set group =>   6
Atom  77H    basis set group =>   2
Atom  78C    basis set group =>   1
Atom  79C    basis set group =>   1
Atom  80H    basis set group =>   2
Atom  81N    basis set group =>   6
Atom  82N    basis set group =>   6
Atom  83N    basis set group =>   6
Atom  84C    basis set group =>   1
Atom  85C    basis set group =>   1
Atom  86C    basis set group =>   1
Atom  87C    basis set group =>   1
Atom  88H    basis set group =>   2
Atom  89C    basis set group =>   1
Atom  90H    basis set group =>   2
Atom  91C    basis set group =>   1
Atom  92H    basis set group =>   2
Atom  93H    basis set group =>   2
Atom  94C    basis set group =>   1
Atom  95H    basis set group =>   2
Atom  96H    basis set group =>   2
Atom  97H    basis set group =>   2
---------------------------------
AUXILIARY/C BASIS SET INFORMATION
---------------------------------
There are 6 groups of distinct atoms

 Group   1 Type C   : 8s6p5d3f contracted to 6s5p4d1f pattern {311111/21111/2111/3}
 Group   2 Type H   : 4s3p2d contracted to 3s2p1d pattern {211/21/2}
 Group   3 Type O   : 8s6p5d3f contracted to 6s5p4d1f pattern {311111/21111/2111/3}
 Group   4 Type P   : 10s7p7d3f contracted to 8s5p5d2f pattern {31111111/31111/31111/12}
 Group   5 Type Cu  : 9s9p6d4f3g2h contracted to 9s9p6d4f3g2h pattern {111111111/111111111/111111/1111/111/11}
 Group   6 Type N   : 8s6p5d3f contracted to 6s5p4d1f pattern {311111/21111/2111/3}

Atom   0C    basis set group =>   1
Atom   1C    basis set group =>   1
Atom   2C    basis set group =>   1
Atom   3C    basis set group =>   1
Atom   4C    basis set group =>   1
Atom   5C    basis set group =>   1
Atom   6C    basis set group =>   1
Atom   7C    basis set group =>   1
Atom   8C    basis set group =>   1
Atom   9C    basis set group =>   1
Atom  10C    basis set group =>   1
Atom  11C    basis set group =>   1
Atom  12C    basis set group =>   1
Atom  13C    basis set group =>   1
Atom  14C    basis set group =>   1
Atom  15C    basis set group =>   1
Atom  16C    basis set group =>   1
Atom  17C    basis set group =>   1
Atom  18C    basis set group =>   1
Atom  19C    basis set group =>   1
Atom  20C    basis set group =>   1
Atom  21C    basis set group =>   1
Atom  22C    basis set group =>   1
Atom  23C    basis set group =>   1
Atom  24C    basis set group =>   1
Atom  25C    basis set group =>   1
Atom  26C    basis set group =>   1
Atom  27C    basis set group =>   1
Atom  28C    basis set group =>   1
Atom  29C    basis set group =>   1
Atom  30C    basis set group =>   1
Atom  31C    basis set group =>   1
Atom  32C    basis set group =>   1
Atom  33C    basis set group =>   1
Atom  34C    basis set group =>   1
Atom  35C    basis set group =>   1
Atom  36H    basis set group =>   2
Atom  37H    basis set group =>   2
Atom  38H    basis set group =>   2
Atom  39H    basis set group =>   2
Atom  40H    basis set group =>   2
Atom  41H    basis set group =>   2
Atom  42H    basis set group =>   2
Atom  43H    basis set group =>   2
Atom  44H    basis set group =>   2
Atom  45H    basis set group =>   2
Atom  46H    basis set group =>   2
Atom  47H    basis set group =>   2
Atom  48H    basis set group =>   2
Atom  49H    basis set group =>   2
Atom  50H    basis set group =>   2
Atom  51H    basis set group =>   2
Atom  52H    basis set group =>   2
Atom  53H    basis set group =>   2
Atom  54H    basis set group =>   2
Atom  55H    basis set group =>   2
Atom  56H    basis set group =>   2
Atom  57H    basis set group =>   2
Atom  58H    basis set group =>   2
Atom  59H    basis set group =>   2
Atom  60O    basis set group =>   3
Atom  61P    basis set group =>   4
Atom  62P    basis set group =>   4
Atom  63H    basis set group =>   2
Atom  64H    basis set group =>   2
Atom  65H    basis set group =>   2
Atom  66H    basis set group =>   2
Atom  67Cu   basis set group =>   5
Atom  68C    basis set group =>   1
Atom  69C    basis set group =>   1
Atom  70C    basis set group =>   1
Atom  71C    basis set group =>   1
Atom  72C    basis set group =>   1
Atom  73H    basis set group =>   2
Atom  74H    basis set group =>   2
Atom  75H    basis set group =>   2
Atom  76N    basis set group =>   6
Atom  77H    basis set group =>   2
Atom  78C    basis set group =>   1
Atom  79C    basis set group =>   1
Atom  80H    basis set group =>   2
Atom  81N    basis set group =>   6
Atom  82N    basis set group =>   6
Atom  83N    basis set group =>   6
Atom  84C    basis set group =>   1
Atom  85C    basis set group =>   1
Atom  86C    basis set group =>   1
Atom  87C    basis set group =>   1
Atom  88H    basis set group =>   2
Atom  89C    basis set group =>   1
Atom  90H    basis set group =>   2
Atom  91C    basis set group =>   1
Atom  92H    basis set group =>   2
Atom  93H    basis set group =>   2
Atom  94C    basis set group =>   1
Atom  95H    basis set group =>   2
Atom  96H    basis set group =>   2
Atom  97H    basis set group =>   2


           ************************************************************
           *        Program running with 8 parallel MPI-processes     *
           *              working on a common directory               *
           ************************************************************
------------------------------------------------------------------------------
                           ORCA GTO INTEGRAL CALCULATION
                           -- RI-GTO INTEGRALS CHOSEN --
------------------------------------------------------------------------------
------------------------------------------------------------------------------
                   ___                                                        
                  /   \      - P O W E R E D   B Y -                         
                 /     \                                                     
                 |  |  |   _    _      __       _____    __    __             
                 |  |  |  | |  | |    /  \     |  _  \  |  |  /  |          
                  \  \/   | |  | |   /    \    | | | |  |  | /  /          
                 / \  \   | |__| |  /  /\  \   | |_| |  |  |/  /          
                |  |  |   |  __  | /  /__\  \  |    /   |      \           
                |  |  |   | |  | | |   __   |  |    \   |  |\   \          
                \     /   | |  | | |  |  |  |  | |\  \  |  | \   \       
                 \___/    |_|  |_| |__|  |__|  |_| \__\ |__|  \__/        
                                                                              
                      - O R C A' S   B I G   F R I E N D -                    
                                      &                                       
                       - I N T E G R A L  F E E D E R -                       
                                                                              
 v1 FN, 2020, v2 2021                                                         
------------------------------------------------------------------------------


Reading SHARK input file Cu50_DPEPhos-pytri_M06L_def2SVP_B2PLYP_def2TZVP_RIJCOSX_CPCM.SHARKINP.tmp ... ok
----------------------
SHARK INTEGRAL PACKAGE
----------------------

Number of atoms                             ...     98
Number of basis functions                   ...   1037
Number of shells                            ...    477
Maximum angular momentum                    ...      3
Integral batch strategy                     ... SHARK/LIBINT Hybrid
RI-J (if used) integral strategy            ... SPLIT-RIJ (Revised 2003 algorithm where possible)
Printlevel                                  ...      1
Contraction scheme used                     ... SEGMENTED contraction
Coulomb Range Separation                    ... NOT USED
Exchange Range Separation                   ... NOT USED
Finite Nucleus Model                        ... NOT USED
Auxiliary Coulomb fitting basis             ... AVAILABLE
   # of basis functions in Aux-J            ...   3328
   # of shells in Aux-J                     ...   1082
   Maximum angular momentum in Aux-J        ...      4
Auxiliary J/K fitting basis                 ... NOT available
Auxiliary Correlation fitting basis         ... AVAILABLE
   # of basis functions in Aux-C            ...   3467
   # of shells in Aux-C                     ...   1193
   Maximum angular momentum in Aux-C        ...      5
Auxiliary 'external' fitting basis          ... NOT available
Integral threshold                          ...     2.500000e-11
Primitive cut-off                           ...     2.500000e-12
Primitive pair pre-selection threshold      ...     2.500000e-12

Calculating pre-screening integrals         ... done (  0.1 sec) Dimension = 477
Organizing shell pair data                  ... done (  0.7 sec)
Shell pair information
Total number of shell pairs                 ...    114003
Shell pairs after pre-screening             ...     60823
Total number of primitive shell pairs       ...    429196
Primitive shell pairs kept                  ...    128158
          la=0 lb=0:  18465 shell pairs
          la=1 lb=0:  22934 shell pairs
          la=1 lb=1:   7237 shell pairs
          la=2 lb=0:   6988 shell pairs
          la=2 lb=1:   4373 shell pairs
          la=2 lb=2:    576 shell pairs
          la=3 lb=0:    137 shell pairs
          la=3 lb=1:     89 shell pairs
          la=3 lb=2:     23 shell pairs
          la=3 lb=3:      1 shell pairs

Calculating one electron integrals          ... done (  0.2 sec)
Calculating RI/J V-Matrix + Cholesky decomp.... done (  0.7 sec)
Calculating RI/C V-Matrix + Cholesky decomp.... done (  0.8 sec)
Calculating Nuclear repulsion               ... done (  0.0 sec) ENN=   9999.711642197473 Eh

SHARK setup successfully completed in   3.4 seconds

Maximum memory used throughout the entire GTOINT-calculation: 111.7 MB


           ************************************************************
           *        Program running with 8 parallel MPI-processes     *
           *              working on a common directory               *
           ************************************************************
-------------------------------------------------------------------------------
                                 ORCA SCF
-------------------------------------------------------------------------------

------------
SCF SETTINGS
------------
Hamiltonian:
 Density Functional     Method          .... DFT(GTOs)
 Exchange Functional    Exchange        .... B88
   X-Alpha parameter    XAlpha          ....  0.666667
   Becke's b parameter  XBeta           ....  0.004200
 Correlation Functional Correlation     .... LYP
 LDA part of GGA corr.  LDAOpt          .... VWN-3
 Gradients option       PostSCFGGA      .... off
 Hybrid DFT is turned on
   Fraction HF Exchange ScalHFX         ....  0.530000
   Scaling of DF-GGA-X  ScalDFX         ....  0.470000
   Scaling of DF-GGA-C  ScalDFC         ....  0.730000
   Scaling of DF-LDA-C  ScalLDAC        ....  0.730000
   Perturbative correction              ....  0.270000
   Density functional embedding theory  .... OFF
   NL short-range parameter             ....  7.800000
 RI-approximation to the Coulomb term is turned on
   Number of AuxJ basis functions       .... 3328
   RIJ-COSX (HFX calculated with COS-X)).... on


General Settings:
 Integral files         IntName         .... Cu50_DPEPhos-pytri_M06L_def2SVP_B2PLYP_def2TZVP_RIJCOSX_CPCM
 Hartree-Fock type      HFTyp           .... RHF
 Total Charge           Charge          ....    1
 Multiplicity           Mult            ....    1
 Number of Electrons    NEL             ....  434
 Basis Dimension        Dim             .... 1037
 Nuclear Repulsion      ENuc            ....   9999.7116421975 Eh

Convergence Acceleration:
 DIIS                   CNVDIIS         .... on
   Start iteration      DIISMaxIt       ....    12
   Startup error        DIISStart       ....  0.200000
   # of expansion vecs  DIISMaxEq       ....     5
   Bias factor          DIISBfac        ....   1.050
   Max. coefficient     DIISMaxC        ....  10.000
 Trust-Rad. Augm. Hess. CNVTRAH         .... auto
   Auto Start mean grad. ratio tolernc. ....  1.125000
   Auto Start start iteration           ....    20
   Auto Start num. interpolation iter.  ....    10
   Max. Number of Micro iterations      ....    16
   Max. Number of Macro iterations      .... Maxiter - #DIIS iter
   Number of Davidson start vectors     ....     2
   Converg. threshold I  (grad. norm)   ....   1.000e-05
   Converg. threshold II (energy diff.) ....   1.000e-08
   Grad. Scal. Fac. for Micro threshold ....   0.100
   Minimum threshold for Micro iter.    ....   0.010
   NR start threshold (gradient norm)   ....   0.001
   Initial trust radius                 ....   0.400
   Minimum AH scaling param. (alpha)    ....   1.000
   Maximum AH scaling param. (alpha)    .... 1000.000
   Orbital update algorithm             .... Taylor
   White noise on init. David. guess    .... on
   Maximum white noise                  ....   0.010
   Quad. conv. algorithm                .... NR
 SOSCF                  CNVSOSCF        .... off
 Level Shifting         CNVShift        .... on
   Level shift para.    LevelShift      ....    0.2500
   Turn off err/grad.   ShiftErr        ....    0.0010
 Zerner damping         CNVZerner       .... off
 Static damping         CNVDamp         .... on
   Fraction old density DampFac         ....    0.7000
   Max. Damping (<1)    DampMax         ....    0.9800
   Min. Damping (>=0)   DampMin         ....    0.0000
   Turn off err/grad.   DampErr         ....    0.1000
 Fernandez-Rico         CNVRico         .... off

SCF Procedure:
 Maximum # iterations   MaxIter         ....   125
 SCF integral mode      SCFMode         .... Direct
   Integral package                     .... SHARK and LIBINT hybrid scheme
 Reset frequency        DirectResetFreq ....    20
 Integral Threshold     Thresh          ....  2.500e-11 Eh
 Primitive CutOff       TCut            ....  2.500e-12 Eh

Convergence Tolerance:
 Convergence Check Mode ConvCheckMode   .... Total+1el-Energy
 Convergence forced     ConvForced      .... 1
 Energy Change          TolE            ....  1.000e-08 Eh
 1-El. energy change                    ....  1.000e-05 Eh
 DIIS Error             TolErr          ....  5.000e-07


Diagonalization of the overlap matrix:
Smallest eigenvalue                        ... 2.144e-04
Time for diagonalization                   ...    0.284 sec
Threshold for overlap eigenvalues          ... 1.000e-08
Number of eigenvalues below threshold      ... 0
Time for construction of square roots      ...    0.169 sec
Total time needed                          ...    0.459 sec

Time for model grid setup =    3.861 sec

------------------------------
INITIAL GUESS: MODEL POTENTIAL
------------------------------
Loading Hartree-Fock densities                     ... done
Calculating cut-offs                               ... done
Initializing the effective Hamiltonian             ... done
Setting up the integral package (SHARK)            ... done
Starting the Coulomb interaction                   ... done (   3.6 sec)
Reading the grid                                   ... done
Mapping shells                                     ... done
Starting the XC term evaluation                    ... done (   1.0 sec)
  promolecular density results
     # of electrons  =    434.993747023
     EX              =   -414.703877243
     EC              =     -5.250117276
     EX+EC           =   -419.953994519
Transforming the Hamiltonian                       ... done (   0.1 sec)
Diagonalizing the Hamiltonian                      ... done (   0.3 sec)
Back transforming the eigenvectors                 ... done (   0.1 sec)
Now organizing SCF variables                       ... done
                      ------------------
                      INITIAL GUESS DONE (   8.9 sec)
                      ------------------
-------------------
DFT GRID GENERATION
-------------------

General Integration Accuracy     IntAcc      ... 4.388
Radial Grid Type                 RadialGrid  ... OptM3 with GC (2021)
Angular Grid (max. ang.)         AngularGrid ... 4 (Lebedev-302)
Angular grid pruning method      GridPruning ... 4 (adaptive)
Weight generation scheme         WeightScheme... Becke
Basis function cutoff            BFCut       ... 1.0000e-11
Integration weight cutoff        WCut        ... 1.0000e-14
Angular grids for H and He will be reduced by one unit
Partially contracted basis set               ... off
Rotationally invariant grid construction     ... off

Total number of grid points                  ...   476196
Total number of batches                      ...     7491
Average number of points per batch           ...       63
Average number of grid points per atom       ...     4859
Time for grid setup =   14.043 sec

--------------------
COSX GRID GENERATION
--------------------

GRIDX 1
-------
General Integration Accuracy     IntAcc      ... 3.816
Radial Grid Type                 RadialGrid  ... OptM3 with GC (2021)
Angular Grid (max. ang.)         AngularGrid ... 1 (Lebedev-50)
Angular grid pruning method      GridPruning ... 4 (adaptive)
Weight generation scheme         WeightScheme... Becke
Basis function cutoff            BFCut       ... 1.0000e-11
Integration weight cutoff        WCut        ... 1.0000e-14
Angular grids for H and He will be reduced by one unit
Partially contracted basis set               ... on
Rotationally invariant grid construction     ... off

Total number of grid points                  ...    59994
Total number of batches                      ...      975
Average number of points per batch           ...       61
Average number of grid points per atom       ...      612
UseSFitting                                  ... on

GRIDX 2
-------
General Integration Accuracy     IntAcc      ... 4.020
Radial Grid Type                 RadialGrid  ... OptM3 with GC (2021)
Angular Grid (max. ang.)         AngularGrid ... 2 (Lebedev-110)
Angular grid pruning method      GridPruning ... 4 (adaptive)
Weight generation scheme         WeightScheme... Becke
Basis function cutoff            BFCut       ... 1.0000e-11
Integration weight cutoff        WCut        ... 1.0000e-14
Angular grids for H and He will be reduced by one unit
Partially contracted basis set               ... on
Rotationally invariant grid construction     ... off

Total number of grid points                  ...   128809
Total number of batches                      ...     2061
Average number of points per batch           ...       62
Average number of grid points per atom       ...     1314
UseSFitting                                  ... on

GRIDX 3
-------
General Integration Accuracy     IntAcc      ... 4.338
Radial Grid Type                 RadialGrid  ... OptM3 with GC (2021)
Angular Grid (max. ang.)         AngularGrid ... 3 (Lebedev-194)
Angular grid pruning method      GridPruning ... 4 (adaptive)
Weight generation scheme         WeightScheme... Becke
Basis function cutoff            BFCut       ... 1.0000e-11
Integration weight cutoff        WCut        ... 1.0000e-14
Angular grids for H and He will be reduced by one unit
Partially contracted basis set               ... on
Rotationally invariant grid construction     ... off

Total number of grid points                  ...   280556
Total number of batches                      ...     4431
Average number of points per batch           ...       63
Average number of grid points per atom       ...     2863
UseSFitting                                  ... on

Time for X-Grid setup             =   14.727 sec


--------------------
CPCM SOLVATION MODEL
--------------------
CPCM parameters:
  Epsilon                                         ...       8.9300
  Refrac                                          ...       1.4242
  Rsolv                                           ...       1.3000
  Surface type                                    ... GAUSSIAN VDW
  Epsilon function type                           ...         CPCM
Solvent:                                     ... CH2CL2
SMD-CDS solvent descriptors:
  Soln                                       ...    1.4242
  Soln25                                     ...    1.4212
  Sola                                       ...    0.1000
  Solb                                       ...    0.0500
  Solg                                       ...   39.1500
  Solc                                       ...    0.0000
  Solh                                       ...    0.6670
Radii:
 Radius for C  used is    3.4960 Bohr (=   1.8500 Ang.)
 Radius for H  used is    2.2677 Bohr (=   1.2000 Ang.)
 Radius for O  used is    3.9949 Bohr (=   2.1140 Ang.)
 Radius for P  used is    4.0062 Bohr (=   2.1200 Ang.)
 Radius for Cu used is    3.5149 Bohr (=   1.8600 Ang.)
 Radius for N  used is    3.5716 Bohr (=   1.8900 Ang.)
Calculating surface                               ...        done! (  0.0s)
GEPOL surface points                              ...         5597
GEPOL Volume                                      ...    5393.1949
GEPOL Surface-area                                ...    2759.8302
Calculating surface distance matrix               ...        done! (  0.4s)
Performing Cholesky decomposition & store         ...        done! (  1.9s)
Overall time for CPCM initialization              ...                 2.3s
--------------
SCF ITERATIONS
--------------
ITER       Energy         Delta-E        Max-DP      RMS-DP      [F,P]     Damp
               ***  Starting incremental Fock matrix formation  ***
  0  -4538.0554141679   0.000000000000 0.12795521  0.00114407  0.1629872 0.7000
  1  -4538.4897512610  -0.434337093182 0.11617390  0.00087336  0.0981987 0.7000
                               ***Turning on DIIS***
  2  -4538.7241963528  -0.234445091731 0.31092943  0.00195909  0.0504291 0.0000
  3  -4539.1229689056  -0.398772552867 0.04375453  0.00035067  0.0376178 0.0000
  4  -4539.1732784247  -0.050309519035 0.01411653  0.00010985  0.0063175 0.0000
  5  -4539.1750697900  -0.001791365336 0.01028394  0.00004771  0.0061024 0.0000
  6  -4539.1753939943  -0.000324204236 0.00285275  0.00002262  0.0043502 0.0000
  7  -4539.1754542756  -0.000060281312 0.00252905  0.00001029  0.0032230 0.0000
  8  -4539.1754728680  -0.000018592458 0.00079530  0.00000763  0.0007106 0.0000
               *** Restarting incremental Fock matrix formation ***
                                   *** Resetting DIIS ***
  9  -4539.1753161617   0.000156706361 0.00136801  0.00001791  0.0006641 0.0000
 10  -4539.1753173047  -0.000001143019 0.00045350  0.00000296  0.0011799 0.0000
 11  -4539.1753194082  -0.000002103469 0.00014491  0.00000167  0.0001152 0.0000
 12  -4539.1753194881  -0.000000079959 0.00008583  0.00000071  0.0001442 0.0000
 13  -4539.1753195702  -0.000000082082 0.00005129  0.00000027  0.0000658 0.0000
 14  -4539.1753195876  -0.000000017430 0.00001260  0.00000010  0.0000091 0.0000
 15  -4539.1753196092  -0.000000021586 0.00000430  0.00000004  0.0000040 0.0000
 16  -4539.1753196406  -0.000000031409 0.00000314  0.00000003  0.0000013 0.0000
 17  -4539.1753196909  -0.000000050240 0.00000185  0.00000002  0.0000021 0.0000
                            ***DIIS convergence achieved***

               *****************************************************
               *                     SUCCESS                       *
               *           SCF CONVERGED AFTER  18 CYCLES          *
               *****************************************************

Old exchange energy                            =   -221.808588636 Eh
New exchange energy                            =   -221.808670310 Eh
Exchange energy change after final integration =     -0.000081674 Eh
Total energy after final integration           =  -4539.175401313 Eh
Final COS-X integration done in                =   132.800 sec

SMD CDS free energy correction energy :               -17.62942     Kcal/mol
Total Energy after SMD CDS correction =             -4539.203495576 Eh

----------------
TOTAL SCF ENERGY
----------------

Total Energy       :        -4539.20349558 Eh         -123518.00665 eV

Components:
Nuclear Repulsion  :         9999.71164220 Eh          272105.98739 eV
Electronic Energy  :       -14538.91513777 Eh         -395623.99403 eV
One Electron Energy:       -26138.17185987 Eh         -711255.81585 eV
Two Electron Energy:        11599.25672209 Eh          315631.82182 eV
Max COSX asymmetry :            0.00001649 Eh               0.00045 eV
CPCM Dielectric    :           -0.07799041 Eh              -2.12223 eV
SMD CDS (Gcds)     :           -0.02809426 Eh              -0.76448 eV

Virial components:
Potential Energy   :        -9054.61582141 Eh         -246388.62266 eV
Kinetic Energy     :         4515.41232584 Eh          122870.61601 eV
Virial Ratio       :            2.00526888


DFT components:
N(Alpha)           :      216.999899580731 electrons
N(Beta)            :      216.999899580731 electrons
N(Total)           :      433.999799161461 electrons
E(X)               :     -197.101244252772 Eh       
E(C)               :      -11.227340635053 Eh       
E(XC)              :     -208.328584887825 Eh       
DFET-embed. en.    :        0.000000000000 Eh       
CPCM Solvation Model Properties:
Surface-charge          :           -1.07779810
Charge-correction       :            0.00556968 Eh               0.15156 eV
Free-energy (cav+disp)  :           -0.02809426 Eh              -0.76448 eV

---------------
SCF CONVERGENCE
---------------

  Last Energy change         ...    5.1529e-08  Tolerance :   1.0000e-08
  Last MAX-Density change    ...    0.0000e+00  Tolerance :   1.0000e-07
  Last RMS-Density change    ...    0.0000e+00  Tolerance :   5.0000e-09
  Last DIIS Error            ...    6.6675e-07  Tolerance :   5.0000e-07

             **** THE GBW FILE WAS UPDATED (Cu50_DPEPhos-pytri_M06L_def2SVP_B2PLYP_def2TZVP_RIJCOSX_CPCM.gbw) ****
             **** DENSITY Cu50_DPEPhos-pytri_M06L_def2SVP_B2PLYP_def2TZVP_RIJCOSX_CPCM.scfp WAS UPDATED ****
             **** ENERGY FILE WAS UPDATED (Cu50_DPEPhos-pytri_M06L_def2SVP_B2PLYP_def2TZVP_RIJCOSX_CPCM.en.tmp) ****
             **** THE GBW FILE WAS UPDATED (Cu50_DPEPhos-pytri_M06L_def2SVP_B2PLYP_def2TZVP_RIJCOSX_CPCM.gbw) ****
             **** DENSITY Cu50_DPEPhos-pytri_M06L_def2SVP_B2PLYP_def2TZVP_RIJCOSX_CPCM.scfp WAS UPDATED ****
----------------
ORBITAL ENERGIES
----------------

  NO   OCC          E(Eh)            E(eV) 
   0   2.0000    -325.432944     -8855.4806 
   1   2.0000     -78.287764     -2130.3184 
   2   2.0000     -78.287538     -2130.3122 
   3   2.0000     -39.654454     -1079.0526 
   4   2.0000     -34.702640      -944.3068 
   5   2.0000     -34.702452      -944.3017 
   6   2.0000     -34.702273      -944.2968 
   7   2.0000     -19.785740      -538.3974 
   8   2.0000     -14.974151      -407.4674 
   9   2.0000     -14.936061      -406.4309 
  10   2.0000     -14.910810      -405.7438 
  11   2.0000     -14.886527      -405.0830 
  12   2.0000     -10.712218      -291.4943 
  13   2.0000     -10.710540      -291.4486 
  14   2.0000     -10.704799      -291.2924 
  15   2.0000     -10.701212      -291.1948 
  16   2.0000     -10.695365      -291.0357 
  17   2.0000     -10.689042      -290.8636 
  18   2.0000     -10.684987      -290.7533 
  19   2.0000     -10.666150      -290.2407 
  20   2.0000     -10.657410      -290.0029 
  21   2.0000     -10.652538      -289.8703 
  22   2.0000     -10.652285      -289.8634 
  23   2.0000     -10.650566      -289.8166 
  24   2.0000     -10.649843      -289.7970 
  25   2.0000     -10.648488      -289.7601 
  26   2.0000     -10.648439      -289.7588 
  27   2.0000     -10.647526      -289.7339 
  28   2.0000     -10.647412      -289.7308 
  29   2.0000     -10.647403      -289.7306 
  30   2.0000     -10.646975      -289.7189 
  31   2.0000     -10.646818      -289.7146 
  32   2.0000     -10.646617      -289.7092 
  33   2.0000     -10.645915      -289.6901 
  34   2.0000     -10.645501      -289.6788 
  35   2.0000     -10.645302      -289.6734 
  36   2.0000     -10.645229      -289.6714 
  37   2.0000     -10.644841      -289.6609 
  38   2.0000     -10.644778      -289.6591 
  39   2.0000     -10.644287      -289.6458 
  40   2.0000     -10.643972      -289.6372 
  41   2.0000     -10.643806      -289.6327 
  42   2.0000     -10.642855      -289.6068 
  43   2.0000     -10.642476      -289.5965 
  44   2.0000     -10.642363      -289.5934 
  45   2.0000     -10.642091      -289.5860 
  46   2.0000     -10.641651      -289.5741 
  47   2.0000     -10.641404      -289.5673 
  48   2.0000     -10.640952      -289.5550 
  49   2.0000     -10.640790      -289.5506 
  50   2.0000     -10.640655      -289.5469 
  51   2.0000     -10.640337      -289.5383 
  52   2.0000     -10.639995      -289.5290 
  53   2.0000     -10.639904      -289.5265 
  54   2.0000     -10.639530      -289.5163 
  55   2.0000     -10.639491      -289.5153 
  56   2.0000     -10.639448      -289.5141 
  57   2.0000     -10.639290      -289.5098 
  58   2.0000     -10.638428      -289.4863 
  59   2.0000     -10.638024      -289.4754 
  60   2.0000     -10.636112      -289.4233 
  61   2.0000     -10.624821      -289.1161 
  62   2.0000      -6.971045      -189.6918 
  63   2.0000      -6.970569      -189.6788 
  64   2.0000      -5.026027      -136.7651 
  65   2.0000      -5.025847      -136.7602 
  66   2.0000      -5.025572      -136.7528 
  67   2.0000      -5.025420      -136.7486 
  68   2.0000      -5.024435      -136.7218 
  69   2.0000      -5.023994      -136.7098 
  70   2.0000      -4.579605      -124.6174 
  71   2.0000      -3.000386       -81.6447 
  72   2.0000      -2.998022       -81.5803 
  73   2.0000      -2.995438       -81.5100 
  74   2.0000      -1.271020       -34.5862 
  75   2.0000      -1.235209       -33.6118 
  76   2.0000      -1.104908       -30.0661 
  77   2.0000      -1.076400       -29.2903 
  78   2.0000      -0.998586       -27.1729 
  79   2.0000      -0.990095       -26.9419 
  80   2.0000      -0.987872       -26.8814 
  81   2.0000      -0.986394       -26.8411 
  82   2.0000      -0.981585       -26.7103 
  83   2.0000      -0.980735       -26.6871 
  84   2.0000      -0.977944       -26.6112 
[...]
   216a -> 228a  :     0.015539 

STATE 33:  E=   0.185442 au      5.046 eV    40699.7 cm**-1 <S**2> =   0.000000
   196a -> 218a  :     0.012636 
   198a -> 217a  :     0.022308 
   198a -> 218a  :     0.014802 
   202a -> 218a  :     0.011235 
   204a -> 218a  :     0.015707 
   207a -> 217a  :     0.040901 
   207a -> 222a  :     0.010452 
   208a -> 217a  :     0.060171 
   208a -> 218a  :     0.014155 
   208a -> 222a  :     0.013339 
   209a -> 217a  :     0.034481 
   210a -> 217a  :     0.070334 
   210a -> 218a  :     0.045899 
   210a -> 222a  :     0.023608 
   211a -> 217a  :     0.013645 
   212a -> 217a  :     0.044440 
   212a -> 218a  :     0.035804 
   212a -> 222a  :     0.017732 
   214a -> 217a  :     0.119188 
   214a -> 218a  :     0.075368 
   215a -> 217a  :     0.020153 
   215a -> 218a  :     0.011339 
   216a -> 226a  :     0.010529 
   216a -> 228a  :     0.012382 

STATE 34:  E=   0.174682 au      4.753 eV    38338.3 cm**-1 <S**2> =   0.000000
   201a -> 226a  :     0.015227 
   209a -> 225a  :     0.012558 
   210a -> 221a  :     0.019606 
   212a -> 219a  :     0.011920 
   213a -> 220a  :     0.012078 
   214a -> 217a  :     0.010661 
   215a -> 220a  :     0.021724 
   215a -> 221a  :     0.012257 
   216a -> 220a  :     0.012678 
   216a -> 224a  :     0.026537 
   216a -> 226a  :     0.275767 
   216a -> 227a  :     0.037215 
   216a -> 228a  :     0.063988 
   216a -> 231a  :     0.029684 

STATE 35:  E=   0.179497 au      4.884 eV    39394.9 cm**-1 <S**2> =   0.000000
   200a -> 219a  :     0.014661 
   203a -> 220a  :     0.011258 
   209a -> 219a  :     0.011209 
   210a -> 220a  :     0.020116 
   213a -> 218a  :     0.030119 
   213a -> 219a  :     0.219407 
   213a -> 220a  :     0.030319 
   213a -> 221a  :     0.010077 
   213a -> 228a  :     0.018258 
   213a -> 232a  :     0.018832 
   215a -> 218a  :     0.014689 
   215a -> 219a  :     0.039710 
   215a -> 221a  :     0.026380 
   215a -> 223a  :     0.037742 
   215a -> 225a  :     0.010478 
   216a -> 220a  :     0.012569 
   216a -> 225a  :     0.036520 
   216a -> 228a  :     0.012473 
   216a -> 229a  :     0.049102 
   216a -> 234a  :     0.010748 

STATE 36:  E=   0.181837 au      4.948 eV    39908.6 cm**-1 <S**2> =   0.000000
   201a -> 219a  :     0.013671 
   203a -> 221a  :     0.015903 
   203a -> 223a  :     0.010054 
   204a -> 223a  :     0.013530 
   205a -> 220a  :     0.013256 
   206a -> 224a  :     0.012231 
   206a -> 225a  :     0.016868 
   208a -> 222a  :     0.011587 
   209a -> 230a  :     0.011996 
   213a -> 217a  :     0.012084 
   213a -> 221a  :     0.019884 
   213a -> 224a  :     0.021572 
   213a -> 232a  :     0.015852 
   215a -> 219a  :     0.049590 
   215a -> 220a  :     0.021697 
   215a -> 229a  :     0.025240 
   216a -> 229a  :     0.257169 
   216a -> 234a  :     0.018394 

STATE 37:  E=   0.185926 au      5.059 eV    40806.0 cm**-1 <S**2> =   0.000000
   201a -> 219a  :     0.013316 
   201a -> 221a  :     0.013541 
   202a -> 219a  :     0.010500 
   202a -> 223a  :     0.013747 
   207a -> 225a  :     0.011258 
   208a -> 221a  :     0.015502 
   208a -> 222a  :     0.013056 
   208a -> 223a  :     0.014343 
   208a -> 225a  :     0.013208 
   209a -> 230a  :     0.024642 
   211a -> 220a  :     0.022065 
   211a -> 223a  :     0.036924 
   213a -> 218a  :     0.015417 
   213a -> 219a  :     0.020524 
   213a -> 220a  :     0.013859 
   213a -> 221a  :     0.051673 
   213a -> 223a  :     0.014417 
   216a -> 224a  :     0.010124 
   216a -> 228a  :     0.075092 
   216a -> 229a  :     0.075037 
   216a -> 231a  :     0.011843 

STATE 38:  E=   0.172465 au      4.693 eV    37851.6 cm**-1 <S**2> =   0.000000
   197a -> 217a  :     0.030504 
   197a -> 218a  :     0.028567 
   201a -> 217a  :     0.015237 
   201a -> 218a  :     0.015481 
   201a -> 228a  :     0.010413 
   203a -> 221a  :     0.014482 
   205a -> 217a  :     0.011187 
   205a -> 218a  :     0.016266 
   207a -> 217a  :     0.030018 
   207a -> 218a  :     0.028610 
   207a -> 220a  :     0.014936 
   207a -> 226a  :     0.012113 
   209a -> 217a  :     0.025961 
   209a -> 218a  :     0.014526 
   209a -> 220a  :     0.014023 
   209a -> 226a  :     0.011176 
   213a -> 217a  :     0.017996 
   213a -> 221a  :     0.015080 
   215a -> 223a  :     0.017988 
   216a -> 224a  :     0.012444 
   216a -> 226a  :     0.010014 
   216a -> 227a  :     0.017486 
   216a -> 228a  :     0.120699 
   216a -> 229a  :     0.091295 

STATE 39:  E=   0.163802 au      4.457 eV    35950.4 cm**-1 <S**2> =   0.000000
   197a -> 217a  :     0.055311 
   197a -> 218a  :     0.050410 
   198a -> 217a  :     0.010493 
   201a -> 217a  :     0.026564 
   202a -> 217a  :     0.012345 
   205a -> 217a  :     0.016133 
   207a -> 217a  :     0.024662 
   207a -> 220a  :     0.012320 
   207a -> 221a  :     0.016833 
   209a -> 217a  :     0.018739 
   212a -> 219a  :     0.010021 
   213a -> 217a  :     0.166717 
   213a -> 219a  :     0.031215 
   213a -> 221a  :     0.029392 
   215a -> 222a  :     0.045845 
   215a -> 226a  :     0.013584 
   216a -> 224a  :     0.012610 
   216a -> 228a  :     0.029069 
   216a -> 229a  :     0.027827 

STATE 40:  E=   0.167065 au      4.546 eV    36666.5 cm**-1 <S**2> =   0.000000
   200a -> 221a  :     0.013448 
   205a -> 219a  :     0.011373 
   207a -> 221a  :     0.018030 
   208a -> 219a  :     0.022507 
   208a -> 221a  :     0.020915 
   208a -> 234a  :     0.011445 
   210a -> 219a  :     0.013549 
   210a -> 220a  :     0.013178 
   210a -> 221a  :     0.016904 
   213a -> 217a  :     0.020770 
   213a -> 219a  :     0.011140 
   213a -> 221a  :     0.073173 
   213a -> 222a  :     0.015253 
   213a -> 223a  :     0.015042 
   215a -> 219a  :     0.010386 
   215a -> 222a  :     0.041135 
   216a -> 228a  :     0.022881 
   216a -> 229a  :     0.197577 


-------------------------
TD-DFT-EXCITATION SPECTRA
-------------------------

Center of mass = (  0.0353, -0.0025,  0.0209)
Calculating the Dipole integrals                  ... done
Transforming integrals                            ... done
Calculating the Linear Momentum integrals         ... done
Transforming integrals                            ... done
Calculating angular momentum integrals            ... done
Transforming integrals                            ... done

-----------------------------------------------------------------------------
         ABSORPTION SPECTRUM VIA TRANSITION ELECTRIC DIPOLE MOMENTS
-----------------------------------------------------------------------------
State   Energy    Wavelength  fosc         T2        TX        TY        TZ  
        (cm-1)      (nm)                 (au**2)    (au)      (au)      (au) 
-----------------------------------------------------------------------------
   1   21646.7    462.0   0.069009043   1.04952   0.54926   0.43979  -0.74459
   2   31059.9    322.0   0.504372985   5.34598   2.09442  -0.34857   0.91536
   3   31780.4    314.7   0.139647027   1.44660   1.11016   0.00531   0.46272
   4   30525.4    327.6   0.117968799   1.27228   0.05102  -0.61557  -0.94380
   5   24960.4    400.6   0.032162985   0.42421  -0.41810   0.33167   0.37336
   6   32901.8    303.9   0.077687214   0.77733   0.18736  -0.85215  -0.12672
   7   30972.4    322.9   0.118882586   1.26363   0.49037   0.65312  -0.77240
   8   29401.1    340.1   0.176095147   1.97178  -1.21986   0.62303  -0.30912
   9   29739.8    336.2   0.063378410   0.70158  -0.65473   0.19551  -0.48444
  10   32767.9    305.2   0.094370767   0.94812   0.83678   0.31166   0.38833
  11   35921.8    278.4   0.104359832   0.95642   0.53503   0.03120   0.81805
  12   39125.9    255.6   0.013582848   0.11429  -0.29245   0.05604  -0.16007
  13   37506.3    266.6   0.033651274   0.29537   0.37298  -0.27695   0.28206
  14   37277.7    268.3   0.005791564   0.05115   0.01741  -0.21144   0.07835
  15   38103.4    262.4   0.031202653   0.26959  -0.10039   0.44055  -0.25580
  16   37955.5    263.5   0.004399732   0.03816  -0.14432   0.01271  -0.13104
  17   33351.2    299.8   0.023982594   0.23673   0.33806   0.13424   0.32316
  18   40234.8    248.5   0.001858358   0.01521   0.07375  -0.09406   0.03032
  19   36512.2    273.9   0.047578023   0.42899  -0.11169  -0.61986   0.17970
  20   37546.0    266.3   0.037012619   0.32453   0.05749   0.29185  -0.48585
  21   29203.9    342.4   0.012533018   0.14128   0.31015   0.08513  -0.19453
  22   36945.5    270.7   0.087107476   0.77619   0.57284  -0.66303  -0.09189
  23   38918.3    256.9   0.088569287   0.74921   0.34282   0.77565   0.17337
  24   37200.3    268.8   0.043924377   0.38872  -0.46371  -0.09877  -0.40489
  25   34617.7    288.9   0.002325616   0.02212   0.07312   0.10868   0.07042
  26   37345.2    267.8   0.077594496   0.68402  -0.24134  -0.77277   0.16914
  27   42381.4    236.0   0.009226419   0.07167  -0.22170   0.03044  -0.14694
  28   36611.2    273.1   0.051140768   0.45986   0.00742   0.40193  -0.54614
  29   35933.9    278.3   0.076037453   0.69662  -0.58793   0.57428   0.14548
  30   36284.8    275.6   0.051035576   0.46305   0.63249  -0.23494   0.08836
  31   35915.2    278.4   0.021054888   0.19300   0.37908  -0.07891   0.20753
  32   41101.1    243.3   0.014463294   0.11585   0.00346  -0.17163  -0.29391
  33   40699.7    245.7   0.072697149   0.58803   0.20746  -0.44667   0.58777
  34   38338.3    260.8   0.132868123   1.14094  -0.88164   0.37303  -0.47381
  35   39394.9    253.8   0.035895235   0.29997   0.09657   0.31975  -0.43405
  36   39908.6    250.6   0.044256987   0.36508   0.19764   0.56662  -0.07048
  37   40806.0    245.1   0.004181602   0.03374   0.08096   0.14732   0.07402
  38   37851.6    264.2   0.032694556   0.28436  -0.14338   0.45595   0.23646
  39   35950.4    278.2   0.037185915   0.34053   0.01147   0.50908  -0.28501
  40   36666.5    272.7   0.025276130   0.22694   0.39048  -0.09922   0.25422

-----------------------------------------------------------------------------
         ABSORPTION SPECTRUM VIA TRANSITION VELOCITY DIPOLE MOMENTS
-----------------------------------------------------------------------------
State   Energy    Wavelength   fosc        P2         PX        PY        PZ  
        (cm-1)      (nm)                 (au**2)     (au)      (au)      (au) 
-----------------------------------------------------------------------------
   1   21646.7    462.0   0.199168976   0.02947  -0.09466  -0.07106   0.12432
   2   31059.9    322.0   0.749809109   0.15917  -0.36118   0.05840  -0.15909
   3   31780.4    314.7   0.201253256   0.04371  -0.19231  -0.00063  -0.08204
   4   30525.4    327.6   0.189400443   0.03951  -0.00948   0.11069   0.16484
   5   24960.4    400.6   0.089180193   0.01521   0.07847  -0.06533  -0.06920
   6   32901.8    303.9   0.115509082   0.02597  -0.03702   0.15413   0.02910
   7   30972.4    322.9   0.211218559   0.04471  -0.08976  -0.12481   0.14518
   8   29401.1    340.1   0.377608948   0.07588   0.23595  -0.13146   0.05406
   9   29739.8    336.2   0.126789193   0.02577   0.12406  -0.03093   0.09707
  10   32767.9    305.2   0.151680670   0.03397  -0.15386  -0.06857  -0.07478
  11   35921.8    278.4   0.152340266   0.03740  -0.10180  -0.00983  -0.16414
  12   39125.9    255.6   0.015279370   0.00409   0.05332  -0.01332   0.03264
  13   37506.3    266.6   0.041866151   0.01073  -0.07293   0.05136  -0.05268
  14   37277.7    268.3   0.007663443   0.00195  -0.00516   0.04008  -0.01788
  15   38103.4    262.4   0.041302833   0.01076   0.01755  -0.09016   0.04816
  16   37955.5    263.5   0.004982558   0.00129   0.02834   0.00083   0.02211
  17   33351.2    299.8   0.041023431   0.00935  -0.06739  -0.03377  -0.06058
  18   40234.8    248.5   0.001997543   0.00055  -0.01391   0.01856  -0.00337
  19   36512.2    273.9   0.066056762   0.01648   0.02421   0.12130  -0.03441
  20   37546.0    266.3   0.052177295   0.01339  -0.01412  -0.06294   0.09607
  21   29203.9    342.4   0.030216072   0.00603  -0.06342  -0.01081   0.04350
  22   36945.5    270.7   0.133456407   0.03370  -0.11936   0.13855   0.01597
  23   38918.3    256.9   0.127040878   0.03379  -0.07317  -0.16397  -0.03940
  24   37200.3    268.8   0.069187808   0.01759   0.09661   0.02294   0.08792
  25   34617.7    288.9   0.005212981   0.00123  -0.01684  -0.02869  -0.01126
  26   37345.2    267.8   0.122439392   0.03125   0.04925   0.16507  -0.03971
  27   42381.4    236.0   0.009784911   0.00283   0.04705  -0.00475   0.02446
  28   36611.2    273.1   0.081301168   0.02034   0.00290  -0.08247   0.11634
  29   35933.9    278.3   0.138584579   0.03404   0.12191  -0.13412  -0.03442
  30   36284.8    275.6   0.089964377   0.02231  -0.13961   0.04717  -0.02436
  31   35915.2    278.4   0.040030522   0.00983  -0.08583   0.01683  -0.04664
  32   41101.1    243.3   0.018435856   0.00518  -0.00029   0.03739   0.06149
  33   40699.7    245.7   0.100870276   0.02806  -0.04534   0.09883  -0.12742
  34   38338.3    260.8   0.206451314   0.05410   0.19413  -0.07823   0.10144
  35   39394.9    253.8   0.053503437   0.01441  -0.02038  -0.06847   0.09645
  36   39908.6    250.6   0.064405239   0.01757  -0.04340  -0.12452   0.01333
  37   40806.0    245.1   0.005049539   0.00141  -0.01517  -0.03179  -0.01294
  38   37851.6    264.2   0.054504567   0.01410   0.03175  -0.10220  -0.05146
  39   35950.4    278.2   0.074258608   0.01825  -0.00388  -0.12024   0.06143
  40   36666.5    272.7   0.045214529   0.01133  -0.08701   0.02475  -0.05610

-------------------------------------------------------------------
                             CD SPECTRUM
-------------------------------------------------------------------
State  Energy     Wavelength     R         MX        MY        MZ   
       (cm-1)       (nm)     (1e40*cgs)   (au)      (au)      (au)  
-------------------------------------------------------------------
   1   21646.7    462.0    -14.05019  -0.12924   0.07108  -0.01333
   2   31059.9    322.0    -219.53943  -0.33604   0.79261   0.56199
   3   31780.4    314.7    203.93293   0.22796   1.07705   0.37555
   4   30525.4    327.6    406.25721  -0.10116  -0.20519  -0.78467
   5   24960.4    400.6    -68.32041   0.16997  -0.38747   0.14640
   6   32901.8    303.9    -143.66635  -0.35956   0.30297  -0.16427
   7   30972.4    322.9      7.66957   0.04346   0.34199   0.29571
   8   29401.1    340.1    -36.76575  -0.00547   0.07938   0.43386
   9   29739.8    336.2    -59.03357   0.30160  -0.07161  -0.17805
  10   32767.9    305.2    -79.49427  -0.09395   0.09005  -0.30404
  11   35921.8    278.4     54.33040   0.44336  -0.25211  -0.13948
  12   39125.9    255.6      0.53213   0.01585  -0.24241  -0.12089
  13   37506.3    266.6     -8.10524   0.10406   0.02698  -0.17207
  14   37277.7    268.3     20.66736   0.04458  -0.19771   0.01605
  15   38103.4    262.4     16.43247   0.32770   0.01786  -0.23411
  16   37955.5    263.5      5.46400  -0.09549  -0.33841  -0.01609
  17   33351.2    299.8     50.28022  -0.05349   0.25201   0.28130
  18   40234.8    248.5      2.37712   0.19190   0.06751  -0.09107
  19   36512.2    273.9    -43.53903   0.15389   0.13305   0.04068
  20   37546.0    266.3      0.66315  -0.07086   0.08928   0.04235
  21   29203.9    342.4    -43.64553  -0.27698   0.24263   0.14048
  22   36945.5    270.7    -186.63529  -0.64697   0.00819   0.21584
  23   38918.3    256.9    -59.54369   0.10814  -0.24826   0.16835
  24   37200.3    268.8    127.95015  -0.35903  -0.03039  -0.25170
  25   34617.7    288.9     -2.44810   0.15128  -0.12629  -0.03592
  26   37345.2    267.8    -95.45310  -0.18512   0.25037  -0.31728
  27   42381.4    236.0    -15.93141   0.03497   0.01168   0.17963
  28   36611.2    273.1      0.27000   0.16065  -0.00245  -0.00067
  29   35933.9    278.3    -88.57269   0.19310  -0.12658  -0.01133
  30   36284.8    275.6     42.14346   0.19988   0.06217  -0.25382
  31   35915.2    278.4      1.37360   0.25436   0.25476  -0.35370
  32   41101.1    243.3     36.66403   0.14222  -0.02400  -0.24892
  33   40699.7    245.7    -42.33363  -0.01517   0.60265   0.31056
  34   38338.3    260.8     -4.93486   0.21390  -0.00284  -0.37816
  35   39394.9    253.8    -13.59468  -0.47814  -0.09632  -0.11090
  36   39908.6    250.6    125.96629   0.34995   0.28273  -0.53670
  37   40806.0    245.1      1.03896   0.16760   0.03561  -0.22443
  38   37851.6    264.2    -107.76911  -0.11120  -0.40833  -0.24680
  39   35950.4    278.2    -10.83997   0.08033  -0.01027   0.06557
  40   36666.5    272.7     20.54613  -0.28084  -0.48218   0.41460

Total run time:    51412.440 sec

           *** ORCA-CIS/TD-DFT FINISHED WITHOUT ERROR ***

Maximum memory used throughout the entire CIS-calculation: 6118.6 MB

-----------------------
CIS/TD-DFT TOTAL ENERGY
-----------------------

    E(SCF)  =  -4539.203495576 Eh
    DE(CIS) =      0.098629808 Eh (Root  1)
    ----------------------------- ---------
    E(tot)  =  -4539.104865768 Eh


-------------------------   --------------------
FINAL SINGLE POINT ENERGY     -4539.104865767810
-------------------------   --------------------


                            ***************************************
                            *     ORCA property calculations      *
                            ***************************************


  WARNING: The energy has been calculated at the MP2 level but the densities
           used in the property calculations are still SCF densities
           MP2 response densities have not been calculated 
           use %mp2 Density relaxed end
           or  %mp2 Density unrelaxed end

                                    ---------------------
                                    Active property flags
                                    ---------------------
   (+) Dipole Moment


------------------------------------------------------------------------------
                       ORCA ELECTRIC PROPERTIES CALCULATION
------------------------------------------------------------------------------

Dipole Moment Calculation                       ... on
Quadrupole Moment Calculation                   ... off
Polarizability Calculation                      ... off
GBWName                                         ... Cu50_DPEPhos-pytri_M06L_def2SVP_B2PLYP_def2TZVP_RIJCOSX_CPCM.gbw
Electron density                                ... Cu50_DPEPhos-pytri_M06L_def2SVP_B2PLYP_def2TZVP_RIJCOSX_CPCM.scfp
The origin for moment calculation is the CENTER OF MASS  = ( 0.035284, -0.002473  0.020936)

-------------
DIPOLE MOMENT
-------------
                                X             Y             Z
Electronic contribution:     14.12730      -2.82263      11.15407
Nuclear contribution   :    -15.34854       1.07561      -9.10706
                        -----------------------------------------
Total Dipole Moment    :     -1.22123      -1.74702       2.04700
                        -----------------------------------------
Magnitude (a.u.)       :      2.95529
Magnitude (Debye)      :      7.51174



--------------------
Rotational spectrum 
--------------------
 
Rotational constants in cm-1:     0.001847     0.001372     0.001226 
Rotational constants in MHz :    55.376394    41.117827    36.746550 

 Dipole components along the rotational axes: 
x,y,z [a.u.] :     1.235110    -1.738697     2.045767 
x,y,z [Debye]:     3.139400    -4.419416     5.199926 

 

Timings for individual modules:

Sum of individual times         ...    54656.649 sec (= 910.944 min)
GTO integral calculation        ...        3.977 sec (=   0.066 min)   0.0 %
SCF iterations                  ...     1203.124 sec (=  20.052 min)   2.2 %
MP2 module                      ...     2035.841 sec (=  33.931 min)   3.7 %
CIS module                      ...    51413.707 sec (= 856.895 min)  94.1 %
                             ****ORCA TERMINATED NORMALLY****
TOTAL RUN TIME: 0 days 15 hours 11 minutes 2 seconds 380 msec
