
                                 *****************
                                 * O   R   C   A *
                                 *****************

                                            #,                                       
                                            ###                                      
                                            ####                                     
                                            #####                                    
                                            ######                                   
                                           ########,                                 
                                     ,,################,,,,,                         
                               ,,#################################,,                 
                          ,,##########################################,,             
                       ,#########################################, ''#####,          
                    ,#############################################,,   '####,        
                  ,##################################################,,,,####,       
                ,###########''''           ''''###############################       
              ,#####''   ,,,,##########,,,,          '''####'''          '####       
            ,##' ,,,,###########################,,,                        '##       
           ' ,,###''''                  '''############,,,                           
         ,,##''                                '''############,,,,        ,,,,,,###''
      ,#''                                            '''#######################'''  
     '                                                          ''''####''''         
             ,#######,   #######,   ,#######,      ##                                
            ,#'     '#,  ##    ##  ,#'     '#,    #''#        ######   ,####,        
            ##       ##  ##   ,#'  ##            #'  '#       #        #'  '#        
            ##       ##  #######   ##           ,######,      #####,   #    #        
            '#,     ,#'  ##    ##  '#,     ,#' ,#      #,         ##   #,  ,#        
             '#######'   ##     ##  '#######'  #'      '#     #####' # '####'        



                  #######################################################
                  #                        -***-                        #
                  #          Department of theory and spectroscopy      #
                  #    Directorship and core code : Frank Neese         #
                  #        Max Planck Institute fuer Kohlenforschung    #
                  #                Kaiser Wilhelm Platz 1               #
                  #                 D-45470 Muelheim/Ruhr               #
                  #                      Germany                        #
                  #                                                     #
                  #                  All rights reserved                #
                  #                        -***-                        #
                  #######################################################


                         Program Version 5.0.2 -  RELEASE  -


 With contributions from (in alphabetic order):
   Daniel Aravena         : Magnetic Suceptibility
   Michael Atanasov       : Ab Initio Ligand Field Theory (pilot matlab implementation)
   Alexander A. Auer      : GIAO ZORA, VPT2 properties, NMR spectrum
   Ute Becker             : Parallelization
   Giovanni Bistoni       : ED, misc. LED, open-shell LED, HFLD
   Martin Brehm           : Molecular dynamics
   Dmytro Bykov           : SCF Hessian
   Vijay G. Chilkuri      : MRCI spin determinant printing, contributions to CSF-ICE
   Dipayan Datta          : RHF DLPNO-CCSD density
   Achintya Kumar Dutta   : EOM-CC, STEOM-CC
   Dmitry Ganyushin       : Spin-Orbit,Spin-Spin,Magnetic field MRCI
   Miquel Garcia          : C-PCM and meta-GGA Hessian, CC/C-PCM, Gaussian charge scheme
   Yang Guo               : DLPNO-NEVPT2, F12-NEVPT2, CIM, IAO-localization
   Andreas Hansen         : Spin unrestricted coupled pair/coupled cluster methods
   Benjamin Helmich-Paris : MC-RPA, TRAH-SCF, COSX integrals
   Lee Huntington         : MR-EOM, pCC
   Robert Izsak           : Overlap fitted RIJCOSX, COSX-SCS-MP3, EOM
   Marcus Kettner         : VPT2
   Christian Kollmar      : KDIIS, OOCD, Brueckner-CCSD(T), CCSD density, CASPT2, CASPT2-K
   Simone Kossmann        : Meta GGA functionals, TD-DFT gradient, OOMP2, MP2 Hessian
   Martin Krupicka        : Initial AUTO-CI
   Lucas Lang             : DCDCAS
   Marvin Lechner         : AUTO-CI (C++ implementation), FIC-MRCC
   Dagmar Lenk            : GEPOL surface, SMD
   Dimitrios Liakos       : Extrapolation schemes; Compound Job, initial MDCI parallelization
   Dimitrios Manganas     : Further ROCIS development; embedding schemes
   Dimitrios Pantazis     : SARC Basis sets
   Anastasios Papadopoulos: AUTO-CI, single reference methods and gradients
   Taras Petrenko         : DFT Hessian,TD-DFT gradient, ASA, ECA, R-Raman, ABS, FL, XAS/XES, NRVS
   Peter Pinski           : DLPNO-MP2, DLPNO-MP2 Gradient
   Christoph Reimann      : Effective Core Potentials
   Marius Retegan         : Local ZFS, SOC
   Christoph Riplinger    : Optimizer, TS searches, QM/MM, DLPNO-CCSD(T), (RO)-DLPNO pert. Triples
   Tobias Risthaus        : Range-separated hybrids, TD-DFT gradient, RPA, STAB
   Michael Roemelt        : Original ROCIS implementation
   Masaaki Saitow         : Open-shell DLPNO-CCSD energy and density
   Barbara Sandhoefer     : DKH picture change effects
   Avijit Sen             : IP-ROCIS
   Kantharuban Sivalingam : CASSCF convergence, NEVPT2, FIC-MRCI
   Bernardo de Souza      : ESD, SOC TD-DFT
   Georgi Stoychev        : AutoAux, RI-MP2 NMR, DLPNO-MP2 response
   Willem Van den Heuvel  : Paramagnetic NMR
   Boris Wezisla          : Elementary symmetry handling
   Frank Wennmohs         : Technical directorship


 We gratefully acknowledge several colleagues who have allowed us to
 interface, adapt or use parts of their codes:
   Stefan Grimme, W. Hujo, H. Kruse, P. Pracht,  : VdW corrections, initial TS optimization,
                  C. Bannwarth, S. Ehlert          DFT functionals, gCP, sTDA/sTD-DF
   Ed Valeev, F. Pavosevic, A. Kumar             : LibInt (2-el integral package), F12 methods
   Garnet Chan, S. Sharma, J. Yang, R. Olivares  : DMRG
   Ulf Ekstrom                                   : XCFun DFT Library
   Mihaly Kallay                                 : mrcc  (arbitrary order and MRCC methods)
   Jiri Pittner, Ondrej Demel                    : Mk-CCSD
   Frank Weinhold                                : gennbo (NPA and NBO analysis)
   Christopher J. Cramer and Donald G. Truhlar   : smd solvation model
   Lars Goerigk                                  : TD-DFT with DH, B97 family of functionals
   V. Asgeirsson, H. Jonsson                     : NEB implementation
   FAccTs GmbH                                   : IRC, NEB, NEB-TS, DLPNO-Multilevel, CI-OPT
                                                   MM, QMMM, 2- and 3-layer-ONIOM, Crystal-QMMM,
                                                   LR-CPCM, SF, NACMEs, symmetry and pop. for TD-DFT,
                                                   nearIR, NL-DFT gradient (VV10), updates on ESD,
                                                   ML-optimized integration grids
   S Lehtola, MJT Oliveira, MAL Marques          : LibXC Library
   Liviu Ungur et al                             : ANISO software


 Your calculation uses the libint2 library for the computation of 2-el integrals
 For citations please refer to: http://libint.valeyev.net

 Your ORCA version has been built with support for libXC version: 5.1.0
 For citations please refer to: https://tddft.org/programs/libxc/

 This ORCA versions uses:
   CBLAS   interface :  Fast vector & matrix operations
   LAPACKE interface :  Fast linear algebra routines
   SCALAPACK package :  Parallel linear algebra routines
   Shared memory     :  Shared parallel matrices
   BLAS/LAPACK       :  OpenBLAS 0.3.15  USE64BITINT DYNAMIC_ARCH NO_AFFINITY Zen SINGLE_THREADED
        Core in use  :  Zen
   Copyright (c) 2011-2014, The OpenBLAS Project


Your calculation utilizes the SMD solvation module
Please cite in your paper:
A.V. Marenich, C.J. Cramer, D.G. Truhlar J. Phys. Chem. B, 113, (2009), 6378 

================================================================================

----- Orbital basis set information -----
Your calculation utilizes the basis: def2-SVP
   F. Weigend and R. Ahlrichs, Phys. Chem. Chem. Phys. 7, 3297 (2005).

----- AuxJ basis set information -----
Your calculation utilizes the auxiliary basis: def2/J
   F. Weigend, Phys. Chem. Chem. Phys. 8, 1057 (2006).

----- AuxC basis set information -----
Your calculation utilizes the auxiliary basis: def2-SVP/C
  H-La, Hf-Rn : A. Hellweg, C. Hattig, S. Hofener and W. Klopper, Theor. Chem. Acc. 117, 587 (2007).
        Ce-Lu : J. Chmela and M. E. Harding, Mol. Phys. (2018).

================================================================================
                                        WARNINGS
                       Please study these warnings very carefully!
================================================================================

INFO   : Checking CIS options ...
  ===> : (D) CORRECTION FOUND - SETTING MODE=3
  ===> : JK MODE FOUND - ACTIVATING RI-MP2 CODE
  ===> : MP2 AND CIS FOUND - CHECKING
WARNING: CIS(D) and MP2 runs must have the same orbital window
  ===> : adjusting orbital windows

WARNING: No MP2 level density has been requested!
         To caclulate MP2 level properties use
         %mp2 Density relaxed end
         or
         %mp2 Density unrelaxed end
         Otherwise for double-hybrid DFT only the energy is correct!

WARNING: The frozen-core approximation is turned on by default for 
         the MP2 part of double-hybrid DFT.

WARNING:  You are using a Range-Separated Double Hybrid functional with Doubles Correction 
          Changing Mode to RPA_AOINTS 


WARNING: CIS/ROCIS methods need fully converged wavefunctions
  ===> : Setting SCFConvForced true
         You can overwrite this default with %scf ConvForced false 


INFO   : the flag for use of the SHARK integral package has been found!

================================================================================
                                       INPUT FILE
================================================================================
NAME = Cu50_DPEPhos-pytri.inp
|  1> %maxcore 26000
|  2> %pal
|  3>  nprocs= 8
|  4> end
|  5> ! RI-wB2PLYP  def2-SVP def2/J def2-SVP/C RIJCOSX CPCM TIGHTSCF
|  6> 
|  7> %TDDFT 
|  8>     DCORR      1
|  9>     NROOTS    40
| 10>     TDA       FALSE
| 11> END
| 12> 
| 13> %CPCM
| 14>     SMD		TRUE
| 15>     SMDsolvent	"CH2Cl2"
| 16> END
| 17> 
| 18> * xyz 1 1
| 19> C                   1.46688700    2.36797500   -1.12315800
| 20> C                   1.19773800    1.47972700   -2.18209700
| 21> C                   1.96232300    1.48629300   -3.34741800
| 22> C                   3.00456100    2.40387300   -3.47233000
| 23> C                   3.27463300    3.31080600   -2.44823500
| 24> C                   2.51031500    3.28810700   -1.28191700
| 25> C                   0.84611100   -1.66525100   -2.14769300
| 26> C                   0.10003300   -0.58342000   -2.65183900
| 27> C                  -0.73570300   -0.72464900   -3.75572900
| 28> C                  -0.82548700   -1.95968900   -4.39459700
| 29> C                  -0.08100500   -3.04285100   -3.92732300
| 30> C                   0.74111100   -2.89614100   -2.81133400
| 31> C                  -1.10204500    2.72998200    0.21863200
| 32> C                  -1.56400800    3.25631800   -0.99294400
| 33> C                  -2.89299400    3.66493100   -1.11989700
| 34> C                  -3.76945500    3.55294300   -0.04138000
| 35> C                  -3.31487000    3.02915200    1.17132900
| 36> C                  -1.99195900    2.61443700    1.29855600
| 37> C                   1.37067900    3.26383900    1.60855000
| 38> C                   2.39835600    2.79465700    2.43899300
| 39> C                   3.05204500    3.66186700    3.31334100
| 40> C                   2.67399800    5.00326700    3.37535900
| 41> C                   1.64425900    5.47608500    2.55989700
| 42> C                   0.99569100    4.61324200    1.67796300
| 43> C                   2.04170400   -3.11777200    0.04572500
| 44> C                   0.89406900   -3.83573300    0.42641900
| 45> C                   1.00955400   -5.07330000    1.05168400
| 46> C                   2.27305100   -5.60479100    1.32467400
| 47> C                   3.41524900   -4.89469700    0.96013300
| 48> C                   3.30410300   -3.65723600    0.32178800
| 49> C                   3.44990100   -0.86943700   -1.13991700
| 50> C                   4.08516100    0.13537000   -0.39937500
| 51> C                   5.35098800    0.59022600   -0.76886800
| 52> C                   5.98734200    0.04570300   -1.88381200
| 53> C                   5.35844300   -0.95471200   -2.62901300
| 54> C                   4.09493600   -1.41174600   -2.26112400
| 55> H                   1.74438700    0.77488800   -4.14727200
| 56> H                   3.60775500    2.40689200   -4.38332100
| 57> H                   4.08925700    4.03075300   -2.55053600
| 58> H                   2.74391700    3.98328200   -0.47098600
| 59> H                  -1.30645400    0.14043800   -4.09971100
| 60> H                  -1.47963400   -2.07398100   -5.26174100
| 61> H                  -0.14538200   -4.01087300   -4.42864900
| 62> H                   1.30440400   -3.75667100   -2.43967600
| 63> H                  -3.24324100    4.07500600   -2.07041300
| 64> H                  -4.81034500    3.86923300   -0.14545700
| 65> H                  -3.99785900    2.93551100    2.01957900
| 66> H                  -1.64311800    2.18950600    2.24656400
| 67> H                   3.85341800    3.28696200    3.95429600
| 68> H                   3.18028500    5.68270100    4.06516400
| 69> H                   1.34552500    6.52594500    2.60900500
| 70> H                   0.19513800    4.99291500    1.03600900
| 71> H                   0.10916300   -5.62372000    1.33584200
| 72> H                   2.36471300   -6.57232800    1.82367200
| 73> H                   4.40599100   -5.30467600    1.17078800
| 74> H                   4.20977500   -3.11155900    0.04303200
| 75> H                   5.83654300    1.37855800   -0.18827300
| 76> H                   6.97670900    0.40441200   -2.17779700
| 77> H                   5.85609100   -1.38007400   -3.50384500
| 78> H                   3.60629100   -2.19459500   -2.84949300
| 79> O                   0.13316500    0.63376700   -2.00107900
| 80> P                   0.59093900    2.08373300    0.45431600
| 81> P                   1.79852300   -1.42758600   -0.59831700
| 82> H                   2.68540700    1.73836900    2.39709800
| 83> H                  -0.88518100    3.35288700   -1.84504700
| 84> H                   3.57363700    0.56917800    0.46774400
| 85> H                  -0.09854200   -3.41398900    0.23217800
| 86> Cu                  0.56426300   -0.15140400    0.85571700
| 87> C                  -0.95375900   -1.64827400    2.90368500
| 88> C                  -1.25748900   -2.43960500    4.01523800
| 89> C                  -0.23772200   -2.78212500    4.89550800
| 90> C                   1.05707200   -2.33069600    4.64059100
| 91> C                   1.27572800   -1.53941400    3.51841400
| 92> H                  -2.27949900   -2.78910500    4.17195300
| 93> H                   1.88792500   -2.58370600    5.30037000
| 94> H                   2.27661600   -1.16453200    3.28178500
| 95> N                   0.29977700   -1.19524500    2.67002100
| 96> H                  -0.44942600   -3.40283300    5.76826400
| 97> C                  -1.93163300   -1.28156700    1.88784800
| 98> C                  -3.30782600   -1.37136700    1.80446200
| 99> H                  -4.06154100   -1.72406100    2.50034100
|100> N                  -1.49322600   -0.72511400    0.72215600
|101> N                  -2.49176800   -0.47304000   -0.06545300
|102> N                  -3.60770300   -0.85901500    0.58462300
|103> C                  -4.88222700   -0.69022200   -0.02160800
|104> C                  -6.00534500   -1.31703700    0.51966300
|105> C                  -5.00180300    0.11520200   -1.15820800
|106> C                  -7.24840500   -1.12609400   -0.07706500
|107> H                  -5.91859900   -1.95914200    1.39765800
|108> C                  -6.25114600    0.28862800   -1.74041900
|109> H                  -4.11935900    0.60574700   -1.57034300
|110> C                  -7.40026000   -0.32376900   -1.21578800
|111> H                  -8.12387100   -1.61866700    0.35381700
|112> H                  -6.33931000    0.92444000   -2.62558700
|113> C                  -8.73198100   -0.14022600   -1.86618700
|114> H                  -8.81512500   -0.74864900   -2.78044500
|115> H                  -9.55579200   -0.43607700   -1.20470600
|116> H                  -8.89461100    0.90203700   -2.17348600
|117> *
|118> 
|119>                          ****END OF INPUT****
================================================================================

                       ****************************
                       * Single Point Calculation *
                       ****************************

---------------------------------
CARTESIAN COORDINATES (ANGSTROEM)
---------------------------------
  C      1.466887    2.367975   -1.123158
  C      1.197738    1.479727   -2.182097
  C      1.962323    1.486293   -3.347418
  C      3.004561    2.403873   -3.472330
  C      3.274633    3.310806   -2.448235
  C      2.510315    3.288107   -1.281917
  C      0.846111   -1.665251   -2.147693
  C      0.100033   -0.583420   -2.651839
  C     -0.735703   -0.724649   -3.755729
  C     -0.825487   -1.959689   -4.394597
  C     -0.081005   -3.042851   -3.927323
  C      0.741111   -2.896141   -2.811334
  C     -1.102045    2.729982    0.218632
  C     -1.564008    3.256318   -0.992944
  C     -2.892994    3.664931   -1.119897
  C     -3.769455    3.552943   -0.041380
  C     -3.314870    3.029152    1.171329
  C     -1.991959    2.614437    1.298556
  C      1.370679    3.263839    1.608550
  C      2.398356    2.794657    2.438993
  C      3.052045    3.661867    3.313341
  C      2.673998    5.003267    3.375359
  C      1.644259    5.476085    2.559897
  C      0.995691    4.613242    1.677963
  C      2.041704   -3.117772    0.045725
  C      0.894069   -3.835733    0.426419
  C      1.009554   -5.073300    1.051684
  C      2.273051   -5.604791    1.324674
  C      3.415249   -4.894697    0.960133
  C      3.304103   -3.657236    0.321788
  C      3.449901   -0.869437   -1.139917
  C      4.085161    0.135370   -0.399375
  C      5.350988    0.590226   -0.768868
  C      5.987342    0.045703   -1.883812
  C      5.358443   -0.954712   -2.629013
  C      4.094936   -1.411746   -2.261124
  H      1.744387    0.774888   -4.147272
  H      3.607755    2.406892   -4.383321
  H      4.089257    4.030753   -2.550536
  H      2.743917    3.983282   -0.470986
  H     -1.306454    0.140438   -4.099711
  H     -1.479634   -2.073981   -5.261741
  H     -0.145382   -4.010873   -4.428649
  H      1.304404   -3.756671   -2.439676
  H     -3.243241    4.075006   -2.070413
  H     -4.810345    3.869233   -0.145457
  H     -3.997859    2.935511    2.019579
  H     -1.643118    2.189506    2.246564
  H      3.853418    3.286962    3.954296
  H      3.180285    5.682701    4.065164
  H      1.345525    6.525945    2.609005
  H      0.195138    4.992915    1.036009
  H      0.109163   -5.623720    1.335842
  H      2.364713   -6.572328    1.823672
  H      4.405991   -5.304676    1.170788
  H      4.209775   -3.111559    0.043032
  H      5.836543    1.378558   -0.188273
  H      6.976709    0.404412   -2.177797
  H      5.856091   -1.380074   -3.503845
  H      3.606291   -2.194595   -2.849493
  O      0.133165    0.633767   -2.001079
  P      0.590939    2.083733    0.454316
  P      1.798523   -1.427586   -0.598317
  H      2.685407    1.738369    2.397098
  H     -0.885181    3.352887   -1.845047
  H      3.573637    0.569178    0.467744
  H     -0.098542   -3.413989    0.232178
  Cu     0.564263   -0.151404    0.855717
  C     -0.953759   -1.648274    2.903685
  C     -1.257489   -2.439605    4.015238
  C     -0.237722   -2.782125    4.895508
  C      1.057072   -2.330696    4.640591
  C      1.275728   -1.539414    3.518414
  H     -2.279499   -2.789105    4.171953
  H      1.887925   -2.583706    5.300370
  H      2.276616   -1.164532    3.281785
  N      0.299777   -1.195245    2.670021
  H     -0.449426   -3.402833    5.768264
  C     -1.931633   -1.281567    1.887848
  C     -3.307826   -1.371367    1.804462
  H     -4.061541   -1.724061    2.500341
  N     -1.493226   -0.725114    0.722156
  N     -2.491768   -0.473040   -0.065453
  N     -3.607703   -0.859015    0.584623
  C     -4.882227   -0.690222   -0.021608
  C     -6.005345   -1.317037    0.519663
  C     -5.001803    0.115202   -1.158208
  C     -7.248405   -1.126094   -0.077065
  H     -5.918599   -1.959142    1.397658
  C     -6.251146    0.288628   -1.740419
  H     -4.119359    0.605747   -1.570343
  C     -7.400260   -0.323769   -1.215788
  H     -8.123871   -1.618667    0.353817
  H     -6.339310    0.924440   -2.625587
  C     -8.731981   -0.140226   -1.866187
  H     -8.815125   -0.748649   -2.780445
  H     -9.555792   -0.436077   -1.204706
  H     -8.894611    0.902037   -2.173486

----------------------------
CARTESIAN COORDINATES (A.U.)
----------------------------
  NO LB      ZA    FRAG     MASS         X           Y           Z
   0 C     6.0000    0    12.011    2.772015    4.474824   -2.122461
   1 C     6.0000    0    12.011    2.263397    2.796279   -4.123566
   2 C     6.0000    0    12.011    3.708253    2.808687   -6.325703
   3 C     6.0000    0    12.011    5.677797    4.542662   -6.561753
   4 C     6.0000    0    12.011    6.188160    6.256517   -4.626494
   5 C     6.0000    0    12.011    4.743808    6.213622   -2.422472
   6 C     6.0000    0    12.011    1.598918   -3.146868   -4.058552
   7 C     6.0000    0    12.011    0.189035   -1.102504   -5.011249
   8 C     6.0000    0    12.011   -1.390277   -1.369388   -7.097299
   9 C     6.0000    0    12.011   -1.559944   -3.703276   -8.304585
  10 C     6.0000    0    12.011   -0.153077   -5.750155   -7.421565
  11 C     6.0000    0    12.011    1.400497   -5.472913   -5.312651
  12 C     6.0000    0    12.011   -2.082563    5.158918    0.413155
  13 C     6.0000    0    12.011   -2.955547    6.153549   -1.876392
  14 C     6.0000    0    12.011   -5.466966    6.925716   -2.116299
  15 C     6.0000    0    12.011   -7.123238    6.714089   -0.078197
  16 C     6.0000    0    12.011   -6.264196    5.724268    2.213491
  17 C     6.0000    0    12.011   -3.764257    4.940570    2.453915
  18 C     6.0000    0    12.011    2.590208    6.167762    3.039719
  19 C     6.0000    0    12.011    4.532236    5.281136    4.609029
  20 C     6.0000    0    12.011    5.767529    6.919926    6.261307
  21 C     6.0000    0    12.011    5.053124    9.454804    6.378504
  22 C     6.0000    0    12.011    3.107199   10.348301    4.837504
  23 C     6.0000    0    12.011    1.881583    8.717764    3.170891
  24 C     6.0000    0    12.011    3.858261   -5.891735    0.086408
  25 C     6.0000    0    12.011    1.689546   -7.248485    0.805815
  26 C     6.0000    0    12.011    1.907781   -9.587148    1.987395
  27 C     6.0000    0    12.011    4.295444  -10.591520    2.503271
  28 C     6.0000    0    12.011    6.453885   -9.249637    1.814388
  29 C     6.0000    0    12.011    6.243850   -6.911174    0.608091
  30 C     6.0000    0    12.011    6.519368   -1.642998   -2.154131
  31 C     6.0000    0    12.011    7.719836    0.255812   -0.754709
  32 C     6.0000    0    12.011   10.111902    1.115365   -1.452950
  33 C     6.0000    0    12.011   11.314437    0.086366   -3.559889
  34 C     6.0000    0    12.011   10.125990   -1.804144   -4.968115
  35 C     6.0000    0    12.011    7.738308   -2.667813   -4.272905
  36 H     1.0000    0     1.008    3.296414    1.464326   -7.837208
  37 H     1.0000    0     1.008    6.817669    4.548367   -8.283276
  38 H     1.0000    0     1.008    7.727576    7.617019   -4.819815
  39 H     1.0000    0     1.008    5.185252    7.527312   -0.890035
  40 H     1.0000    0     1.008   -2.468840    0.265389   -7.747331
  41 H     1.0000    0     1.008   -2.796103   -3.919256   -9.943249
  42 H     1.0000    0     1.008   -0.274732   -7.579452   -8.368934
  43 H     1.0000    0     1.008    2.464966   -7.099079   -4.610319
  44 H     1.0000    0     1.008   -6.128837    7.700645   -3.912514
  45 H     1.0000    0     1.008   -9.090235    7.311791   -0.274874
  46 H     1.0000    0     1.008   -7.554859    5.547312    3.816451
  47 H     1.0000    0     1.008   -3.105043    4.137567    4.245391
  48 H     1.0000    0     1.008    7.281905    6.211458    7.472536
  49 H     1.0000    0     1.008    6.009868   10.738749    7.682047
  50 H     1.0000    0     1.008    2.542674   12.332249    4.930305
  51 H     1.0000    0     1.008    0.368757    9.435242    1.957773
  52 H     1.0000    0     1.008    0.206288  -10.627291    2.524376
  53 H     1.0000    0     1.008    4.468660  -12.419900    3.446241
  54 H     1.0000    0     1.008    8.326116  -10.024385    2.212469
  55 H     1.0000    0     1.008    7.955322   -5.879994    0.081319
  56 H     1.0000    0     1.008   11.029468    2.605097   -0.355784
  57 H     1.0000    0     1.008   13.184069    0.764228   -4.115440
  58 H     1.0000    0     1.008   11.066408   -2.607962   -6.621307
  59 H     1.0000    0     1.008    6.814902   -4.147184   -5.384761
  60 O     8.0000    0    15.999    0.251645    1.197646   -3.781491
  61 P    15.0000    0    30.974    1.116713    3.937685    0.858533
  62 P    15.0000    0    30.974    3.398716   -2.697747   -1.130655
  63 H     1.0000    0     1.008    5.074684    3.285041    4.529859
  64 H     1.0000    0     1.008   -1.672750    6.336038   -3.486634
  65 H     1.0000    0     1.008    6.753195    1.075591    0.883908
  66 H     1.0000    0     1.008   -0.186217   -6.451504    0.438753
  67 Cu   29.0000    0    63.550    1.066303   -0.286112    1.617071
  68 C     6.0000    0    12.011   -1.802343   -3.114786    5.487169
  69 C     6.0000    0    12.011   -2.376310   -4.610185    7.587700
  70 C     6.0000    0    12.011   -0.449229   -5.257454    9.251169
  71 C     6.0000    0    12.011    1.997577   -4.404377    8.769446
  72 C     6.0000    0    12.011    2.410777   -2.909071    6.648839
  73 H     1.0000    0     1.008   -4.307629   -5.270645    7.883849
  74 H     1.0000    0     1.008    3.567661   -4.882497   10.016248
  75 H     1.0000    0     1.008    4.302181   -2.200647    6.201675
  76 N     7.0000    0    14.007    0.566496   -2.258686    5.045608
  77 H     1.0000    0     1.008   -0.849292   -6.430422   10.900439
  78 C     6.0000    0    12.011   -3.650257   -2.421811    3.567516
  79 C     6.0000    0    12.011   -6.250885   -2.591508    3.409939
  80 H     1.0000    0     1.008   -7.675200   -3.258003    4.724960
  81 N     7.0000    0    14.007   -2.821788   -1.370267    1.364677
  82 N     7.0000    0    14.007   -4.708759   -0.893916   -0.123688
  83 N     7.0000    0    14.007   -6.817571   -1.623303    1.104777
  84 C     6.0000    0    12.011   -9.226072   -1.304331   -0.040833
  85 C     6.0000    0    12.011  -11.348457   -2.488839    0.982021
  86 C     6.0000    0    12.011   -9.452038    0.217700   -2.188696
  87 C     6.0000    0    12.011  -13.697500   -2.128009   -0.145632
  88 H     1.0000    0     1.008  -11.184531   -3.702242    2.641191
  89 C     6.0000    0    12.011  -11.812954    0.545428   -3.288915
  90 H     1.0000    0     1.008   -7.784460    1.144696   -2.967518
  91 C     6.0000    0    12.011  -13.984465   -0.611835   -2.297506
  92 H     1.0000    0     1.008  -15.351891   -3.058837    0.668617
  93 H     1.0000    0     1.008  -11.979560    1.746938   -4.961640
  94 C     6.0000    0    12.011  -16.501053   -0.264989   -3.526582
  95 H     1.0000    0     1.008  -16.658172   -1.414742   -5.254280
  96 H     1.0000    0     1.008  -18.057830   -0.824066   -2.276564
  97 H     1.0000    0     1.008  -16.808379    1.704603   -4.107293

--------------------------------
INTERNAL COORDINATES (ANGSTROEM)
--------------------------------
 C      0   0   0     0.000000000000     0.00000000     0.00000000
 C      1   0   0     1.408111323520     0.00000000     0.00000000
 C      2   1   0     1.393774145126   121.39509119     0.00000000
 C      3   2   1     1.394208059361   119.21528953   359.17749642
 C      4   3   2     1.394358964076   120.46829974   359.58209261
 C      5   4   3     1.394630749284   119.83360649     0.94993817
 C      2   1   3     3.164760939286   129.78636276   128.47253469
 C      7   2   1     1.407534683040    44.86298418   128.76660077
 C      8   7   2     1.391751926256   121.62759905   152.05943505
 C      9   8   7     1.393390573271   119.49201671   359.02235853
 C     10   9   8     1.394933101494   120.01824958     0.00000000
 C     11  10   9     1.393854364587   120.08325483     0.78112849
 C      1   2   3     2.920763785857   104.80595165   152.63152099
 C     13   1   2     1.399412663242    86.51594362   298.56336903
 C     14  13   1     1.396168126041   120.20051586   178.29100714
 C     15  14  13     1.394246791624   120.30029748     0.04897891
 C     16  15  14     1.397020992178   119.80534359     0.00000000
 C     17  16  15     1.392217208152   120.01396372   359.67476362
 C      1   2   3     2.876466040652   154.72269655   201.19177253
 C     19   1   2     1.402101045468   115.70543998    87.35017359
 C     20  19   1     1.394219106857   120.46067470   135.47426538
 C     21  20  19     1.395033951749   119.92805440     0.68920242
 C     22  21  20     1.396029205529   119.97284067   359.84544428
 C     23  22  21     1.393896005314   120.20801945   359.68985156
 C      7   2   1     2.889695900923   117.50299668   337.20218840
 C     25   7   2     1.406222604136    97.14985657   128.13832469
 C     26  25   7     1.391353723874   120.53396255   152.68182250
 C     27  26  25     1.397651920970   120.06968938     0.94664257
 C     28  27  26     1.393463275699   119.74388276   359.56812803
 C     29  28  27     1.396834814451   120.38302126   359.87597173
 C      7   2   1     2.903214555088    68.39069164   301.16503269
 C     31   7   2     1.400569465829   141.90513505    35.36534344
 C     32  31   7     1.394896788911   120.36375605   219.03517593
 C     33  32  31     1.394471883539   119.90570557     0.19935705
 C     34  33  32     1.397021350884   120.04587376   359.94745973
 C     35  34  33     1.393080160122   120.15681794     0.00000000
 H      3   2   1     1.092409994204   119.97821441   178.90778345
 H      4   3   2     1.092591743552   119.28961450   179.70860270
 H      5   4   3     1.091971354380   120.29961208   180.22819101
 H      6   5   4     1.093365109097   119.52633803   178.33709637
 H      9   8   7     1.091996262766   118.90229769   179.02950228
 H     10   9   8     1.092204044860   119.69374032   180.05502015
 H     11  10   9     1.092034225145   120.20360560   180.29583494
 H     12  11  10     1.093590670092   119.54344778   178.69664909
 H     15  14  13     1.092847259634   119.60217793   179.97173385
 H     16  15  14     1.092851031993   120.12069335   180.29349992
 H     17  16  15     1.093055658922   120.16222845   180.21226401
 H     18  17  16     1.095890307515   119.80351742   180.95767133
 H     21  20  19     1.092508927277   119.89349729   180.16910254
 H     22  21  20     1.092606070251   120.02871815   179.55751989
 H     23  22  21     1.092638832378   120.05584508   179.86040153
 H     24  23  22     1.094139676117   119.79274991   180.50704281
 H     27  26  25     1.092891530869   119.76422986   180.43109142
 H     28  27  26     1.092487424466   120.12203526   179.45023087
 H     29  28  27     1.092715891726   120.10336854   179.99589051
 H     30  29  28     1.093485284514   119.51715146   179.92842781
 H     33  32  31     1.092850197545   119.84707920   179.65956476
 H     34  33  32     1.092678538087   120.00800738   179.68262577
 H     35  34  33     1.092665269500   120.05443085   179.87766279
 H     36  35  34     1.094442585514   119.84465954   179.90530623
 O      2   1   3     1.371762191582   115.98379671   181.01120940
 P     19   1   2     1.825623390952    38.05114789   343.84954019
 P     25   7   2     1.825008441383    37.95264883     1.81185304
 H     20  19   1     1.095398469312   119.47866947   315.43685053
 H     14  13   1     1.093714400700   120.18792648   358.09936064
 H     32  31   7     1.096239729074   119.37287619    38.38236278
 H     26  25   7     1.095844042251   119.65339133   332.42692162
 Cu    62  19   1     2.271050809768   121.96902350   122.20276862
 C     68  62  19     2.956211007085   128.81563123    70.26114424
 C     69  68  62     1.397857909900   161.64016263   244.58250011
 C     70  69  68     1.390007178970   118.92513794     9.01885428
 C     71  70  69     1.394726611693   119.04996246   359.75691582
 C     72  71  70     1.390402412681   118.53574170     0.70590444
 H     70  69  68     1.091427634488   119.92855820   189.87495586
 H     72  71  70     1.090705779094   121.43529616   180.56034964
 H     73  72  71     1.094671907975   120.87366710   180.01502471
 N     73  72  71     1.338171639742   122.91303984   359.78906588
 H     71  70  69     1.091695946872   120.27262626   180.27117180
 C     69  68  62     1.456927038082    74.58434856    74.83861442
 C     79  69  68     1.381638316726   133.96873707   187.96747676
 H     80  79  69     1.084770455673   132.41475205     1.96525175
 N     79  69  68     1.364066889020   118.86879192     8.34814884
 N     82  79  69     1.296516627013   110.54340985   179.51204888
 N     83  82  79     1.347919296778   106.79644147     0.31299993
 C     84  83  82     1.421414270642   120.17501807   179.09858346
 C     85  84  83     1.395444510394   120.19201749   167.40578844
 C     85  84  83     1.398165154605   119.45912695   346.99279351
 C     86  85  84     1.392027908784   119.39479134   179.15474527
 H     86  85  84     1.091191513698   120.82637686   358.66870627
 C     87  85  84     1.389209904099   119.30894469   180.63096990
 H     87  85  84     1.090503126261   119.81179297     0.04453921
 C     88  86  85     1.401240670755   121.57937743     0.36323502
 H     88  86  85     1.093036218709   118.97538890   180.12639752
 H     90  87  85     1.093413086836   118.97204430   179.63893087
 C     92  88  86     1.493381302244   121.39538557   178.95571893
 H     95  92  88     1.101344252370   111.15933982   257.04710805
 H     95  92  88     1.097155181040   111.95385885    16.84162844
 H     95  92  88     1.098723510930   111.73982365   138.46757382

---------------------------
INTERNAL COORDINATES (A.U.)
---------------------------
 C      0   0   0     0.000000000000     0.00000000     0.00000000
 C      1   0   0     2.660944767527     0.00000000     0.00000000
 C      2   1   0     2.633851426829   121.39509119     0.00000000
 C      3   2   1     2.634671405899   119.21528953   359.17749642
 C      4   3   2     2.634956574481   120.46829974   359.58209261
 C      5   4   3     2.635470174093   119.83360649     0.94993817
 C      2   1   3     5.980531454582   129.78636276   128.47253469
 C      7   2   1     2.659855074942    44.86298418   128.76660077
 C      8   7   2     2.630029986981   121.62759905   152.05943505
 C      9   8   7     2.633126581069   119.49201671   359.02235853
 C     10   9   8     2.636041536965   120.01824958     0.00000000
 C     11  10   9     2.634003019639   120.08325483     0.78112849
 C      1   2   3     5.519443657145   104.80595165   152.63152099
 C     13   1   2     2.644506681868    86.51594362   298.56336903
 C     14  13   1     2.638375395128   120.20051586   178.29100714
 C     15  14  13     2.634744599268   120.30029748     0.04897891
 C     16  15  14     2.639987078556   119.80534359     0.00000000
 C     17  16  15     2.630909242340   120.01396372   359.67476362
 C      1   2   3     5.435733050357   154.72269655   201.19177253
 C     19   1   2     2.649586988019   115.70543998    87.35017359
 C     20  19   1     2.634692282640   120.46067470   135.47426538
 C     21  20  19     2.636232116328   119.92805440     0.68920242
 C     22  21  20     2.638112873405   119.97284067   359.84544428
 C     23  22  21     2.634081709209   120.20801945   359.68985156
 C      7   2   1     5.460733863060   117.50299668   337.20218840
 C     25   7   2     2.657375605146    97.14985657   128.13832469
 C     26  25   7     2.629277493534   120.53396255   152.68182250
 C     27  26  25     2.641179361181   120.06968938     0.94664257
 C     28  27  26     2.633263968747   119.74388276   359.56812803
 C     29  28  27     2.639635253639   120.38302126   359.87597173
 C      7   2   1     5.486280417129    68.39069164   301.16503269
 C     31   7   2     2.646692721950   141.90513505    35.36534344
 C     32  31   7     2.635972916128   120.36375605   219.03517593
 C     33  32  31     2.635169961342   119.90570557     0.19935705
 C     34  33  32     2.639987756412   120.04587376   359.94745973
 C     35  34  33     2.632539985230   120.15681794     0.00000000
 H      3   2   1     2.064355715004   119.97821441   178.90778345
 H      4   3   2     2.064699171497   119.28961450   179.70860270
 H      5   4   3     2.063526805865   120.29961208   180.22819101
 H      6   5   4     2.066160620578   119.52633803   178.33709637
 H      9   8   7     2.063573875892   118.90229769   179.02950228
 H     10   9   8     2.063966527147   119.69374032   180.05502015
 H     11  10   9     2.063645614394   120.20360560   180.29583494
 H     12  11  10     2.066586869086   119.54344778   178.69664909
 H     15  14  13     2.065182026915   119.60217793   179.97173385
 H     16  15  14     2.065189155641   120.12069335   180.29349992
 H     17  16  15     2.065575844496   120.16222845   180.21226401
 H     18  17  16     2.070932554023   119.80351742   180.95767133
 H     21  20  19     2.064542671417   119.89349729   180.16910254
 H     22  21  20     2.064726245035   120.02871815   179.55751989
 H     23  22  21     2.064788156482   120.05584508   179.86040153
 H     24  23  22     2.067624340119   119.79274991   180.50704281
 H     27  26  25     2.065265687424   119.76422986   180.43109142
 H     28  27  26     2.064502036994   120.12203526   179.45023087
 H     29  28  27     2.064933777545   120.10336854   179.99589051
 H     30  29  28     2.066387719205   119.51715146   179.92842781
 H     33  32  31     2.065187578762   119.84707920   179.65956476
 H     34  33  32     2.064863189397   120.00800738   179.68262577
 H     35  34  33     2.064838115403   120.05443085   179.87766279
 H     36  35  34     2.068196755923   119.84465954   179.90530623
 O      2   1   3     2.592254862957   115.98379671   181.01120940
 P     19   1   2     3.449928232580    38.05114789   343.84954019
 P     25   7   2     3.448766146309    37.95264883     1.81185304
 H     20  19   1     2.070003114515   119.47866947   315.43685053
 H     14  13   1     2.066820686049   120.18792648   358.09936064
 H     32  31   7     2.071592865075   119.37287619    38.38236278
 H     26  25   7     2.070845125344   119.65339133   332.42692162
 Cu    62  19   1     4.291664066681   121.96902350   122.20276862
 C     68  62  19     5.586429197473   128.81563123    70.26114424
 C     69  68  62     2.641568623847   161.64016263   244.58250011
 C     70  69  68     2.626732892438   118.92513794     9.01885428
 C     71  70  69     2.635651327793   119.04996246   359.75691582
 C     72  71  70     2.627479775910   118.53574170     0.70590444
 H     70  69  68     2.062499324177   119.92855820   189.87495586
 H     72  71  70     2.061135215174   121.43529616   180.56034964
 H     73  72  71     2.068630112569   120.87366710   180.01502471
 N     73  72  71     2.528777919294   122.91303984   359.78906588
 H     71  70  69     2.063006361099   120.27262626   180.27117180
 C     69  68  62     2.753193099080    74.58434856    74.83861442
 C     79  69  68     2.610918034744   133.96873707   187.96747676
 H     80  79  69     2.049919079392   132.41475205     1.96525175
 N     79  69  68     2.577712848599   118.86879192     8.34814884
 N     82  79  69     2.450061353130   110.54340985   179.51204888
 N     83  82  79     2.547198321538   106.79644147     0.31299993
 C     84  83  82     2.686083694362   120.17501807   179.09858346
 C     85  84  83     2.637007959729   120.19201749   167.40578844
 C     85  84  83     2.642149232195   119.45912695   346.99279351
 C     86  85  84     2.630551518376   119.39479134   179.15474527
 H     86  85  84     2.062053120548   120.82637686   358.66870627
 C     87  85  84     2.625226261278   119.30894469   180.63096990
 H     87  85  84     2.060752256819   119.81179297     0.04453921
 C     88  86  85     2.647961115440   121.57937743     0.36323502
 H     88  86  85     2.065539107816   118.97538890   180.12639752
 H     90  87  85     2.066251285365   118.97204430   179.63893087
 C     92  88  86     2.822081674759   121.39538557   178.95571893
 H     95  92  88     2.081239016148   111.15933982   257.04710805
 H     95  92  88     2.073322818578   111.95385885    16.84162844
 H     95  92  88     2.076286532558   111.73982365   138.46757382

---------------------
BASIS SET INFORMATION
---------------------
There are 6 groups of distinct atoms

 Group   1 Type C   : 7s4p1d contracted to 3s2p1d pattern {511/31/1}
 Group   2 Type H   : 4s1p contracted to 2s1p pattern {31/1}
 Group   3 Type O   : 7s4p1d contracted to 3s2p1d pattern {511/31/1}
 Group   4 Type P   : 10s7p1d contracted to 4s3p1d pattern {5311/511/1}
 Group   5 Type Cu  : 14s9p5d1f contracted to 5s3p2d1f pattern {63311/531/41/1}
 Group   6 Type N   : 7s4p1d contracted to 3s2p1d pattern {511/31/1}

Atom   0C    basis set group =>   1
Atom   1C    basis set group =>   1
Atom   2C    basis set group =>   1
Atom   3C    basis set group =>   1
Atom   4C    basis set group =>   1
Atom   5C    basis set group =>   1
Atom   6C    basis set group =>   1
Atom   7C    basis set group =>   1
Atom   8C    basis set group =>   1
Atom   9C    basis set group =>   1
Atom  10C    basis set group =>   1
Atom  11C    basis set group =>   1
Atom  12C    basis set group =>   1
Atom  13C    basis set group =>   1
Atom  14C    basis set group =>   1
Atom  15C    basis set group =>   1
Atom  16C    basis set group =>   1
Atom  17C    basis set group =>   1
Atom  18C    basis set group =>   1
Atom  19C    basis set group =>   1
Atom  20C    basis set group =>   1
Atom  21C    basis set group =>   1
Atom  22C    basis set group =>   1
Atom  23C    basis set group =>   1
Atom  24C    basis set group =>   1
Atom  25C    basis set group =>   1
Atom  26C    basis set group =>   1
Atom  27C    basis set group =>   1
Atom  28C    basis set group =>   1
Atom  29C    basis set group =>   1
Atom  30C    basis set group =>   1
Atom  31C    basis set group =>   1
Atom  32C    basis set group =>   1
Atom  33C    basis set group =>   1
Atom  34C    basis set group =>   1
Atom  35C    basis set group =>   1
Atom  36H    basis set group =>   2
Atom  37H    basis set group =>   2
Atom  38H    basis set group =>   2
Atom  39H    basis set group =>   2
Atom  40H    basis set group =>   2
Atom  41H    basis set group =>   2
Atom  42H    basis set group =>   2
Atom  43H    basis set group =>   2
Atom  44H    basis set group =>   2
Atom  45H    basis set group =>   2
Atom  46H    basis set group =>   2
Atom  47H    basis set group =>   2
Atom  48H    basis set group =>   2
Atom  49H    basis set group =>   2
Atom  50H    basis set group =>   2
Atom  51H    basis set group =>   2
Atom  52H    basis set group =>   2
Atom  53H    basis set group =>   2
Atom  54H    basis set group =>   2
Atom  55H    basis set group =>   2
Atom  56H    basis set group =>   2
Atom  57H    basis set group =>   2
Atom  58H    basis set group =>   2
Atom  59H    basis set group =>   2
Atom  60O    basis set group =>   3
Atom  61P    basis set group =>   4
Atom  62P    basis set group =>   4
Atom  63H    basis set group =>   2
Atom  64H    basis set group =>   2
Atom  65H    basis set group =>   2
Atom  66H    basis set group =>   2
Atom  67Cu   basis set group =>   5
Atom  68C    basis set group =>   1
Atom  69C    basis set group =>   1
Atom  70C    basis set group =>   1
Atom  71C    basis set group =>   1
Atom  72C    basis set group =>   1
Atom  73H    basis set group =>   2
Atom  74H    basis set group =>   2
Atom  75H    basis set group =>   2
Atom  76N    basis set group =>   6
Atom  77H    basis set group =>   2
Atom  78C    basis set group =>   1
Atom  79C    basis set group =>   1
Atom  80H    basis set group =>   2
Atom  81N    basis set group =>   6
Atom  82N    basis set group =>   6
Atom  83N    basis set group =>   6
Atom  84C    basis set group =>   1
Atom  85C    basis set group =>   1
Atom  86C    basis set group =>   1
Atom  87C    basis set group =>   1
Atom  88H    basis set group =>   2
Atom  89C    basis set group =>   1
Atom  90H    basis set group =>   2
Atom  91C    basis set group =>   1
Atom  92H    basis set group =>   2
Atom  93H    basis set group =>   2
Atom  94C    basis set group =>   1
Atom  95H    basis set group =>   2
Atom  96H    basis set group =>   2
Atom  97H    basis set group =>   2
---------------------------------
AUXILIARY/J BASIS SET INFORMATION
---------------------------------
There are 6 groups of distinct atoms

 Group   1 Type C   : 12s5p4d2f1g contracted to 6s4p3d1f1g pattern {711111/2111/211/2/1}
 Group   2 Type H   : 5s2p1d contracted to 3s1p1d pattern {311/2/1}
 Group   3 Type O   : 12s5p4d2f1g contracted to 6s4p3d1f1g pattern {711111/2111/211/2/1}
 Group   4 Type P   : 14s5p5d2f1g contracted to 8s4p3d1f1g pattern {71111111/2111/311/2/1}
 Group   5 Type Cu  : 19s5p5d3f3g contracted to 8s5p4d3f3g pattern {121111111/11111/2111/111/111}
 Group   6 Type N   : 12s5p4d2f1g contracted to 6s4p3d1f1g pattern {711111/2111/211/2/1}

Atom   0C    basis set group =>   1
Atom   1C    basis set group =>   1
Atom   2C    basis set group =>   1
Atom   3C    basis set group =>   1
Atom   4C    basis set group =>   1
Atom   5C    basis set group =>   1
Atom   6C    basis set group =>   1
Atom   7C    basis set group =>   1
Atom   8C    basis set group =>   1
Atom   9C    basis set group =>   1
Atom  10C    basis set group =>   1
Atom  11C    basis set group =>   1
Atom  12C    basis set group =>   1
Atom  13C    basis set group =>   1
Atom  14C    basis set group =>   1
Atom  15C    basis set group =>   1
Atom  16C    basis set group =>   1
Atom  17C    basis set group =>   1
Atom  18C    basis set group =>   1
Atom  19C    basis set group =>   1
Atom  20C    basis set group =>   1
Atom  21C    basis set group =>   1
Atom  22C    basis set group =>   1
Atom  23C    basis set group =>   1
Atom  24C    basis set group =>   1
Atom  25C    basis set group =>   1
Atom  26C    basis set group =>   1
Atom  27C    basis set group =>   1
Atom  28C    basis set group =>   1
Atom  29C    basis set group =>   1
Atom  30C    basis set group =>   1
Atom  31C    basis set group =>   1
Atom  32C    basis set group =>   1
Atom  33C    basis set group =>   1
Atom  34C    basis set group =>   1
Atom  35C    basis set group =>   1
Atom  36H    basis set group =>   2
Atom  37H    basis set group =>   2
Atom  38H    basis set group =>   2
Atom  39H    basis set group =>   2
Atom  40H    basis set group =>   2
Atom  41H    basis set group =>   2
Atom  42H    basis set group =>   2
Atom  43H    basis set group =>   2
Atom  44H    basis set group =>   2
Atom  45H    basis set group =>   2
Atom  46H    basis set group =>   2
Atom  47H    basis set group =>   2
Atom  48H    basis set group =>   2
Atom  49H    basis set group =>   2
Atom  50H    basis set group =>   2
Atom  51H    basis set group =>   2
Atom  52H    basis set group =>   2
Atom  53H    basis set group =>   2
Atom  54H    basis set group =>   2
Atom  55H    basis set group =>   2
Atom  56H    basis set group =>   2
Atom  57H    basis set group =>   2
Atom  58H    basis set group =>   2
Atom  59H    basis set group =>   2
Atom  60O    basis set group =>   3
Atom  61P    basis set group =>   4
Atom  62P    basis set group =>   4
Atom  63H    basis set group =>   2
Atom  64H    basis set group =>   2
Atom  65H    basis set group =>   2
Atom  66H    basis set group =>   2
Atom  67Cu   basis set group =>   5
Atom  68C    basis set group =>   1
Atom  69C    basis set group =>   1
Atom  70C    basis set group =>   1
Atom  71C    basis set group =>   1
Atom  72C    basis set group =>   1
Atom  73H    basis set group =>   2
Atom  74H    basis set group =>   2
Atom  75H    basis set group =>   2
Atom  76N    basis set group =>   6
Atom  77H    basis set group =>   2
Atom  78C    basis set group =>   1
Atom  79C    basis set group =>   1
Atom  80H    basis set group =>   2
Atom  81N    basis set group =>   6
Atom  82N    basis set group =>   6
Atom  83N    basis set group =>   6
Atom  84C    basis set group =>   1
Atom  85C    basis set group =>   1
Atom  86C    basis set group =>   1
Atom  87C    basis set group =>   1
Atom  88H    basis set group =>   2
Atom  89C    basis set group =>   1
Atom  90H    basis set group =>   2
Atom  91C    basis set group =>   1
Atom  92H    basis set group =>   2
Atom  93H    basis set group =>   2
Atom  94C    basis set group =>   1
Atom  95H    basis set group =>   2
Atom  96H    basis set group =>   2
Atom  97H    basis set group =>   2
---------------------------------
AUXILIARY/C BASIS SET INFORMATION
---------------------------------
There are 6 groups of distinct atoms

 Group   1 Type C   : 8s6p5d3f contracted to 6s5p4d1f pattern {311111/21111/2111/3}
 Group   2 Type H   : 4s3p2d contracted to 3s2p1d pattern {211/21/2}
 Group   3 Type O   : 8s6p5d3f contracted to 6s5p4d1f pattern {311111/21111/2111/3}
 Group   4 Type P   : 10s7p7d3f contracted to 8s5p5d2f pattern {31111111/31111/31111/12}
 Group   5 Type Cu  : 9s9p6d4f3g2h contracted to 9s9p6d4f3g2h pattern {111111111/111111111/111111/1111/111/11}
 Group   6 Type N   : 8s6p5d3f contracted to 6s5p4d1f pattern {311111/21111/2111/3}

Atom   0C    basis set group =>   1
Atom   1C    basis set group =>   1
Atom   2C    basis set group =>   1
Atom   3C    basis set group =>   1
Atom   4C    basis set group =>   1
Atom   5C    basis set group =>   1
Atom   6C    basis set group =>   1
Atom   7C    basis set group =>   1
Atom   8C    basis set group =>   1
Atom   9C    basis set group =>   1
Atom  10C    basis set group =>   1
Atom  11C    basis set group =>   1
Atom  12C    basis set group =>   1
Atom  13C    basis set group =>   1
Atom  14C    basis set group =>   1
Atom  15C    basis set group =>   1
Atom  16C    basis set group =>   1
Atom  17C    basis set group =>   1
Atom  18C    basis set group =>   1
Atom  19C    basis set group =>   1
Atom  20C    basis set group =>   1
Atom  21C    basis set group =>   1
Atom  22C    basis set group =>   1
Atom  23C    basis set group =>   1
Atom  24C    basis set group =>   1
Atom  25C    basis set group =>   1
Atom  26C    basis set group =>   1
Atom  27C    basis set group =>   1
Atom  28C    basis set group =>   1
Atom  29C    basis set group =>   1
Atom  30C    basis set group =>   1
Atom  31C    basis set group =>   1
Atom  32C    basis set group =>   1
Atom  33C    basis set group =>   1
Atom  34C    basis set group =>   1
Atom  35C    basis set group =>   1
Atom  36H    basis set group =>   2
Atom  37H    basis set group =>   2
Atom  38H    basis set group =>   2
Atom  39H    basis set group =>   2
Atom  40H    basis set group =>   2
Atom  41H    basis set group =>   2
Atom  42H    basis set group =>   2
Atom  43H    basis set group =>   2
Atom  44H    basis set group =>   2
Atom  45H    basis set group =>   2
Atom  46H    basis set group =>   2
Atom  47H    basis set group =>   2
Atom  48H    basis set group =>   2
Atom  49H    basis set group =>   2
Atom  50H    basis set group =>   2
Atom  51H    basis set group =>   2
Atom  52H    basis set group =>   2
Atom  53H    basis set group =>   2
Atom  54H    basis set group =>   2
Atom  55H    basis set group =>   2
Atom  56H    basis set group =>   2
Atom  57H    basis set group =>   2
Atom  58H    basis set group =>   2
Atom  59H    basis set group =>   2
Atom  60O    basis set group =>   3
Atom  61P    basis set group =>   4
Atom  62P    basis set group =>   4
Atom  63H    basis set group =>   2
Atom  64H    basis set group =>   2
Atom  65H    basis set group =>   2
Atom  66H    basis set group =>   2
Atom  67Cu   basis set group =>   5
Atom  68C    basis set group =>   1
Atom  69C    basis set group =>   1
Atom  70C    basis set group =>   1
Atom  71C    basis set group =>   1
Atom  72C    basis set group =>   1
Atom  73H    basis set group =>   2
Atom  74H    basis set group =>   2
Atom  75H    basis set group =>   2
Atom  76N    basis set group =>   6
Atom  77H    basis set group =>   2
Atom  78C    basis set group =>   1
Atom  79C    basis set group =>   1
Atom  80H    basis set group =>   2
Atom  81N    basis set group =>   6
Atom  82N    basis set group =>   6
Atom  83N    basis set group =>   6
Atom  84C    basis set group =>   1
Atom  85C    basis set group =>   1
Atom  86C    basis set group =>   1
Atom  87C    basis set group =>   1
Atom  88H    basis set group =>   2
Atom  89C    basis set group =>   1
Atom  90H    basis set group =>   2
Atom  91C    basis set group =>   1
Atom  92H    basis set group =>   2
Atom  93H    basis set group =>   2
Atom  94C    basis set group =>   1
Atom  95H    basis set group =>   2
Atom  96H    basis set group =>   2
Atom  97H    basis set group =>   2


           ************************************************************
           *        Program running with 8 parallel MPI-processes     *
           *              working on a common directory               *
           ************************************************************
------------------------------------------------------------------------------
                           ORCA GTO INTEGRAL CALCULATION
                           -- RI-GTO INTEGRALS CHOSEN --
------------------------------------------------------------------------------
------------------------------------------------------------------------------
                   ___                                                        
                  /   \      - P O W E R E D   B Y -                         
                 /     \                                                     
                 |  |  |   _    _      __       _____    __    __             
                 |  |  |  | |  | |    /  \     |  _  \  |  |  /  |          
                  \  \/   | |  | |   /    \    | | | |  |  | /  /          
                 / \  \   | |__| |  /  /\  \   | |_| |  |  |/  /          
                |  |  |   |  __  | /  /__\  \  |    /   |      \           
                |  |  |   | |  | | |   __   |  |    \   |  |\   \          
                \     /   | |  | | |  |  |  |  | |\  \  |  | \   \       
                 \___/    |_|  |_| |__|  |__|  |_| \__\ |__|  \__/        
                                                                              
                      - O R C A' S   B I G   F R I E N D -                    
                                      &                                       
                       - I N T E G R A L  F E E D E R -                       
                                                                              
 v1 FN, 2020, v2 2021                                                         
------------------------------------------------------------------------------


Reading SHARK input file Cu50_DPEPhos-pytri.SHARKINP.tmp ... ok
----------------------
SHARK INTEGRAL PACKAGE
----------------------

Number of atoms                             ...     98
Number of basis functions                   ...   1037
Number of shells                            ...    477
Maximum angular momentum                    ...      3
Integral batch strategy                     ... SHARK/LIBINT Hybrid
RI-J (if used) integral strategy            ... SPLIT-RIJ (Revised 2003 algorithm where possible)
Printlevel                                  ...      1
Contraction scheme used                     ... SEGMENTED contraction
Coulomb Range Separation                    ... NOT USED
Exchange Range Separation                   ... Long Range
   Mu parameter                             ...  0.300000
   Scaling (regular/separated)              ...  0.530000  0.470000
Finite Nucleus Model                        ... NOT USED
Auxiliary Coulomb fitting basis             ... AVAILABLE
   # of basis functions in Aux-J            ...   3328
   # of shells in Aux-J                     ...   1082
   Maximum angular momentum in Aux-J        ...      4
Auxiliary J/K fitting basis                 ... NOT available
Auxiliary Correlation fitting basis         ... AVAILABLE
   # of basis functions in Aux-C            ...   3467
   # of shells in Aux-C                     ...   1193
   Maximum angular momentum in Aux-C        ...      5
Auxiliary 'external' fitting basis          ... NOT available
Integral threshold                          ...     2.500000e-11
Primitive cut-off                           ...     2.500000e-12
Primitive pair pre-selection threshold      ...     2.500000e-12

Calculating pre-screening integrals         ... done (  0.1 sec) Dimension = 477
Organizing shell pair data                  ... done (  0.7 sec)
Shell pair information
Total number of shell pairs                 ...    114003
Shell pairs after pre-screening             ...     60823
Total number of primitive shell pairs       ...    429196
Primitive shell pairs kept                  ...    128158
          la=0 lb=0:  18465 shell pairs
          la=1 lb=0:  22934 shell pairs
          la=1 lb=1:   7237 shell pairs
          la=2 lb=0:   6988 shell pairs
          la=2 lb=1:   4373 shell pairs
          la=2 lb=2:    576 shell pairs
          la=3 lb=0:    137 shell pairs
          la=3 lb=1:     89 shell pairs
          la=3 lb=2:     23 shell pairs
          la=3 lb=3:      1 shell pairs

Calculating one electron integrals          ... done (  0.2 sec)
Calculating RI/J V-Matrix + Cholesky decomp.... done (  0.7 sec)
Calculating RI/C V-Matrix + Cholesky decomp.... done (  0.8 sec)
Calculating Nuclear repulsion               ... done (  0.0 sec) ENN=   9999.711642197473 Eh

SHARK setup successfully completed in   3.3 seconds

Maximum memory used throughout the entire GTOINT-calculation: 111.7 MB


           ************************************************************
           *        Program running with 8 parallel MPI-processes     *
           *              working on a common directory               *
           ************************************************************
-------------------------------------------------------------------------------
                                 ORCA SCF
-------------------------------------------------------------------------------

------------
SCF SETTINGS
------------
Hamiltonian:
 Density Functional     Method          .... DFT(GTOs)
 Exchange Functional    Exchange        .... WB88
 Correlation Functional Correlation     .... LYP
 LDA part of GGA corr.  LDAOpt          .... VWN-3
 Gradients option       PostSCFGGA      .... off
 Hybrid DFT is turned on
   Fraction HF Exchange ScalHFX         ....  0.530000
   Scaling of DF-GGA-X  ScalDFX         ....  0.000000
   Scaling of DF-GGA-C  ScalDFC         ....  0.730000
   Scaling of DF-LDA-C  ScalLDAC        ....  0.730000
   Perturbative correction              ....  0.270000
   Density functional embedding theory  .... OFF
 Long-range corrected/Screened/Range-Separated Hybrid DFT is turned on
   Amount of maximum screened exact exchange              ....  0.470000
   Range separation parameter mu (erf(mu*r12)/r12)        ....  0.300000
 RI-approximation to the Coulomb term is turned on
   Number of AuxJ basis functions       .... 3328
   RIJ-COSX (HFX calculated with COS-X)).... on


General Settings:
 Integral files         IntName         .... Cu50_DPEPhos-pytri
 Hartree-Fock type      HFTyp           .... RHF
 Total Charge           Charge          ....    1
 Multiplicity           Mult            ....    1
 Number of Electrons    NEL             ....  434
 Basis Dimension        Dim             .... 1037
 Nuclear Repulsion      ENuc            ....   9999.7116421975 Eh

Convergence Acceleration:
 DIIS                   CNVDIIS         .... on
   Start iteration      DIISMaxIt       ....    12
   Startup error        DIISStart       ....  0.200000
   # of expansion vecs  DIISMaxEq       ....     5
   Bias factor          DIISBfac        ....   1.050
   Max. coefficient     DIISMaxC        ....  10.000
 Trust-Rad. Augm. Hess. CNVTRAH         .... auto
   Auto Start mean grad. ratio tolernc. ....  1.125000
   Auto Start start iteration           ....    20
   Auto Start num. interpolation iter.  ....    10
   Max. Number of Micro iterations      ....    16
   Max. Number of Macro iterations      .... Maxiter - #DIIS iter
   Number of Davidson start vectors     ....     2
   Converg. threshold I  (grad. norm)   ....   1.000e-05
   Converg. threshold II (energy diff.) ....   1.000e-08
   Grad. Scal. Fac. for Micro threshold ....   0.100
   Minimum threshold for Micro iter.    ....   0.010
   NR start threshold (gradient norm)   ....   0.001
   Initial trust radius                 ....   0.400
   Minimum AH scaling param. (alpha)    ....   1.000
   Maximum AH scaling param. (alpha)    .... 1000.000
   Orbital update algorithm             .... Taylor
   White noise on init. David. guess    .... on
   Maximum white noise                  ....   0.010
   Quad. conv. algorithm                .... NR
 SOSCF                  CNVSOSCF        .... off
 Level Shifting         CNVShift        .... on
   Level shift para.    LevelShift      ....    0.2500
   Turn off err/grad.   ShiftErr        ....    0.0010
 Zerner damping         CNVZerner       .... off
 Static damping         CNVDamp         .... on
   Fraction old density DampFac         ....    0.7000
   Max. Damping (<1)    DampMax         ....    0.9800
   Min. Damping (>=0)   DampMin         ....    0.0000
   Turn off err/grad.   DampErr         ....    0.1000
 Fernandez-Rico         CNVRico         .... off

SCF Procedure:
 Maximum # iterations   MaxIter         ....   125
 SCF integral mode      SCFMode         .... Direct
   Integral package                     .... SHARK and LIBINT hybrid scheme
 Reset frequency        DirectResetFreq ....    20
 Integral Threshold     Thresh          ....  2.500e-11 Eh
 Primitive CutOff       TCut            ....  2.500e-12 Eh

Convergence Tolerance:
 Convergence Check Mode ConvCheckMode   .... Total+1el-Energy
 Convergence forced     ConvForced      .... 1
 Energy Change          TolE            ....  1.000e-08 Eh
 1-El. energy change                    ....  1.000e-05 Eh
 DIIS Error             TolErr          ....  5.000e-07


Diagonalization of the overlap matrix:
Smallest eigenvalue                        ... 2.144e-04
Time for diagonalization                   ...    0.277 sec
Threshold for overlap eigenvalues          ... 1.000e-08
Number of eigenvalues below threshold      ... 0
Time for construction of square roots      ...    0.153 sec
Total time needed                          ...    0.437 sec

Time for model grid setup =    3.042 sec

------------------------------
INITIAL GUESS: MODEL POTENTIAL
------------------------------
Loading Hartree-Fock densities                     ... done
Calculating cut-offs                               ... done
Initializing the effective Hamiltonian             ... done
Setting up the integral package (SHARK)            ... done
Starting the Coulomb interaction                   ... done (   2.7 sec)
Reading the grid                                   ... done
Mapping shells                                     ... done
Starting the XC term evaluation                    ... done (   0.8 sec)
  promolecular density results
     # of electrons  =    434.993747023
     EX              =   -412.531181601
     EC              =     -5.250117276
     EX+EC           =   -417.781298877
Transforming the Hamiltonian                       ... done (   0.1 sec)
Diagonalizing the Hamiltonian                      ... done (   0.2 sec)
Back transforming the eigenvectors                 ... done (   0.0 sec)
Now organizing SCF variables                       ... done
                      ------------------
                      INITIAL GUESS DONE (   6.9 sec)
                      ------------------
-------------------
DFT GRID GENERATION
-------------------

General Integration Accuracy     IntAcc      ... 4.388
Radial Grid Type                 RadialGrid  ... OptM3 with GC (2021)
Angular Grid (max. ang.)         AngularGrid ... 4 (Lebedev-302)
Angular grid pruning method      GridPruning ... 4 (adaptive)
Weight generation scheme         WeightScheme... Becke
Basis function cutoff            BFCut       ... 1.0000e-11
Integration weight cutoff        WCut        ... 1.0000e-14
Angular grids for H and He will be reduced by one unit
Partially contracted basis set               ... off
Rotationally invariant grid construction     ... off

Total number of grid points                  ...   476196
Total number of batches                      ...     7491
Average number of points per batch           ...       63
Average number of grid points per atom       ...     4859
Time for grid setup =   10.856 sec

--------------------
COSX GRID GENERATION
--------------------

GRIDX 1
-------
General Integration Accuracy     IntAcc      ... 3.816
Radial Grid Type                 RadialGrid  ... OptM3 with GC (2021)
Angular Grid (max. ang.)         AngularGrid ... 1 (Lebedev-50)
Angular grid pruning method      GridPruning ... 4 (adaptive)
Weight generation scheme         WeightScheme... Becke
Basis function cutoff            BFCut       ... 1.0000e-11
Integration weight cutoff        WCut        ... 1.0000e-14
Angular grids for H and He will be reduced by one unit
Partially contracted basis set               ... on
Rotationally invariant grid construction     ... off

Total number of grid points                  ...    59994
Total number of batches                      ...      975
Average number of points per batch           ...       61
Average number of grid points per atom       ...      612
UseSFitting                                  ... on

GRIDX 2
-------
General Integration Accuracy     IntAcc      ... 4.020
Radial Grid Type                 RadialGrid  ... OptM3 with GC (2021)
Angular Grid (max. ang.)         AngularGrid ... 2 (Lebedev-110)
Angular grid pruning method      GridPruning ... 4 (adaptive)
Weight generation scheme         WeightScheme... Becke
Basis function cutoff            BFCut       ... 1.0000e-11
Integration weight cutoff        WCut        ... 1.0000e-14
Angular grids for H and He will be reduced by one unit
Partially contracted basis set               ... on
Rotationally invariant grid construction     ... off

Total number of grid points                  ...   128809
Total number of batches                      ...     2061
Average number of points per batch           ...       62
Average number of grid points per atom       ...     1314
UseSFitting                                  ... on

GRIDX 3
-------
General Integration Accuracy     IntAcc      ... 4.338
Radial Grid Type                 RadialGrid  ... OptM3 with GC (2021)
Angular Grid (max. ang.)         AngularGrid ... 3 (Lebedev-194)
Angular grid pruning method      GridPruning ... 4 (adaptive)
Weight generation scheme         WeightScheme... Becke
Basis function cutoff            BFCut       ... 1.0000e-11
Integration weight cutoff        WCut        ... 1.0000e-14
Angular grids for H and He will be reduced by one unit
Partially contracted basis set               ... on
Rotationally invariant grid construction     ... off

Total number of grid points                  ...   280556
Total number of batches                      ...     4431
Average number of points per batch           ...       63
Average number of grid points per atom       ...     2863
UseSFitting                                  ... on

Time for X-Grid setup             =   11.498 sec


--------------------
CPCM SOLVATION MODEL
--------------------
CPCM parameters:
  Epsilon                                         ...       8.9300
  Refrac                                          ...       1.4242
  Rsolv                                           ...       1.3000
  Surface type                                    ... GAUSSIAN VDW
  Epsilon function type                           ...         CPCM
Solvent:                                     ... CH2CL2
SMD-CDS solvent descriptors:
  Soln                                       ...    1.4242
  Soln25                                     ...    1.4212
  Sola                                       ...    0.1000
  Solb                                       ...    0.0500
  Solg                                       ...   39.1500
  Solc                                       ...    0.0000
  Solh                                       ...    0.6670
Radii:
 Radius for C  used is    3.4960 Bohr (=   1.8500 Ang.)
 Radius for H  used is    2.2677 Bohr (=   1.2000 Ang.)
 Radius for O  used is    3.9949 Bohr (=   2.1140 Ang.)
 Radius for P  used is    4.0062 Bohr (=   2.1200 Ang.)
 Radius for Cu used is    3.5149 Bohr (=   1.8600 Ang.)
 Radius for N  used is    3.5716 Bohr (=   1.8900 Ang.)
Calculating surface                               ...        done! (  0.0s)
GEPOL surface points                              ...         5597
GEPOL Volume                                      ...    5393.1949
GEPOL Surface-area                                ...    2759.8302
Calculating surface distance matrix               ...        done! (  0.3s)
Performing Cholesky decomposition & store         ...        done! (  1.6s)
Overall time for CPCM initialization              ...                 2.0s
--------------
SCF ITERATIONS
--------------
ITER       Energy         Delta-E        Max-DP      RMS-DP      [F,P]     Damp
               ***  Starting incremental Fock matrix formation  ***
  0  -4535.4139153388   0.000000000000 0.12696598  0.00121971  0.1643906 0.7000
  1  -4535.8396817694  -0.425766430558 0.11602073  0.00094880  0.1049702 0.7000
                               ***Turning on DIIS***
  2  -4536.0923874898  -0.252705720411 0.31413284  0.00221725  0.0598380 0.0000
  3  -4536.5666485165  -0.474261026733 0.04866770  0.00032935  0.0314640 0.0000
  4  -4536.6032072401  -0.036558723536 0.02171782  0.00010910  0.0063910 0.0000
  5  -4536.6049037220  -0.001696481932 0.01494061  0.00005582  0.0089154 0.0000
  6  -4536.6053291596  -0.000425437625 0.00365637  0.00002853  0.0064326 0.0000
  7  -4536.6054581790  -0.000129019397 0.00316282  0.00001326  0.0032984 0.0000
  8  -4536.6054971715  -0.000038992452 0.00141950  0.00001060  0.0004789 0.0000
               *** Restarting incremental Fock matrix formation ***
                                   *** Resetting DIIS ***
  9  -4536.6053330355   0.000164135965 0.00149483  0.00001948  0.0004424 0.0000
 10  -4536.6053371093  -0.000004073770 0.00037717  0.00000312  0.0005692 0.0000
 11  -4536.6053379232  -0.000000813899 0.00024680  0.00000230  0.0004340 0.0000
 12  -4536.6053383570  -0.000000433777 0.00011085  0.00000078  0.0002033 0.0000
 13  -4536.6053384501  -0.000000093139 0.00003492  0.00000041  0.0000656 0.0000
 14  -4536.6053384814  -0.000000031269 0.00001648  0.00000014  0.0000148 0.0000
 15  -4536.6053385425  -0.000000061184 0.00000583  0.00000009  0.0000057 0.0000
 16  -4536.6053386437  -0.000000101160 0.00000334  0.00000004  0.0000025 0.0000
 17  -4536.6053386849  -0.000000041175 0.00000189  0.00000002  0.0000026 0.0000
 18  -4536.6053386967  -0.000000011772 0.00000152  0.00000002  0.0000027 0.0000
 19  -4536.6053387681  -0.000000071429 0.00000071  0.00000001  0.0000011 0.0000
                 **** Energy Check signals convergence ****

               *****************************************************
               *                     SUCCESS                       *
               *           SCF CONVERGED AFTER  20 CYCLES          *
               *****************************************************

Old exchange energy                            =   -253.719047207 Eh
New exchange energy                            =   -253.719125921 Eh
Exchange energy change after final integration =     -0.000078715 Eh
Total energy after final integration           =  -4536.605417479 Eh
Final COS-X integration done in                =   231.822 sec

SMD CDS free energy correction energy :               -17.62942     Kcal/mol
Total Energy after SMD CDS correction =             -4536.633511743 Eh

----------------
TOTAL SCF ENERGY
----------------

Total Energy       :        -4536.63351174 Eh         -123448.07383 eV

Components:
Nuclear Repulsion  :         9999.71164220 Eh          272105.98739 eV
Electronic Energy  :       -14536.34515394 Eh         -395554.06122 eV
One Electron Energy:       -26137.69001103 Eh         -711242.70408 eV
Two Electron Energy:        11601.34485709 Eh          315688.64286 eV
Max COSX asymmetry :            0.00001674 Eh               0.00046 eV
CPCM Dielectric    :           -0.08086483 Eh              -2.20044 eV
SMD CDS (Gcds)     :           -0.02809426 Eh              -0.76448 eV

Virial components:
Potential Energy   :        -9049.95178880 Eh         -246261.70788 eV
Kinetic Energy     :         4513.31827706 Eh          122813.63404 eV
Virial Ratio       :            2.00516587


DFT components:
N(Alpha)           :      216.999898258619 electrons
N(Beta)            :      216.999898258619 electrons
N(Total)           :      433.999796517237 electrons
E(X)               :     -162.409792618770 Eh       
E(C)               :      -11.227001583168 Eh       
E(XC)              :     -173.636794201937 Eh       
DFET-embed. en.    :        0.000000000000 Eh       
CPCM Solvation Model Properties:
Surface-charge          :           -1.07883151
Charge-correction       :            0.00559418 Eh               0.15223 eV
Free-energy (cav+disp)  :           -0.02809426 Eh              -0.76448 eV

---------------
SCF CONVERGENCE
---------------

  Last Energy change         ...    3.4179e-09  Tolerance :   1.0000e-08
  Last MAX-Density change    ...    0.0000e+00  Tolerance :   1.0000e-07
  Last RMS-Density change    ...    0.0000e+00  Tolerance :   5.0000e-09
  Last DIIS Error            ...    4.4488e-07  Tolerance :   5.0000e-07

             **** THE GBW FILE WAS UPDATED (Cu50_DPEPhos-pytri.gbw) ****
             **** DENSITY Cu50_DPEPhos-pytri.scfp WAS UPDATED ****
             **** ENERGY FILE WAS UPDATED (Cu50_DPEPhos-pytri.en.tmp) ****
             **** THE GBW FILE WAS UPDATED (Cu50_DPEPhos-pytri.gbw) ****
             **** DENSITY Cu50_DPEPhos-pytri.scfp WAS UPDATED ****
----------------
ORBITAL ENERGIES
----------------

  NO   OCC          E(Eh)            E(eV) 
   0   2.0000    -325.502310     -8857.3682 
   1   2.0000     -78.362037     -2132.3394 
   2   2.0000     -78.361582     -2132.3271 
   3   2.0000     -39.730680     -1081.1268 
   4   2.0000     -34.778930      -946.3828 
   5   2.0000     -34.778740      -946.3776 
   6   2.0000     -34.778552      -946.3725 
   7   2.0000     -19.859874      -540.4147 
   8   2.0000     -15.048545      -409.4917 
   9   2.0000     -15.012729      -408.5171 
  10   2.0000     -14.987000      -407.8170 
  11   2.0000     -14.961199      -407.1149 
  12   2.0000     -10.785657      -293.4926 
  13   2.0000     -10.783525      -293.4346 
  14   2.0000     -10.778349      -293.2938 
  15   2.0000     -10.774210      -293.1812 
  16   2.0000     -10.767689      -293.0037 
  17   2.0000     -10.761242      -292.8283 
  18   2.0000     -10.757020      -292.7134 
  19   2.0000     -10.738346      -292.2052 
  20   2.0000     -10.728272      -291.9311 
  21   2.0000     -10.725367      -291.8521 
  22   2.0000     -10.722825      -291.7829 
  23   2.0000     -10.722113      -291.7635 
  24   2.0000     -10.721847      -291.7563 
  25   2.0000     -10.721290      -291.7411 
  26   2.0000     -10.720237      -291.7125 
  27   2.0000     -10.719974      -291.7053 
  28   2.0000     -10.719339      -291.6881 
  29   2.0000     -10.719320      -291.6875 
  30   2.0000     -10.719254      -291.6857 
  31   2.0000     -10.719047      -291.6801 
  32   2.0000     -10.718975      -291.6781 
  33   2.0000     -10.718040      -291.6527 
  34   2.0000     -10.717568      -291.6398 
  35   2.0000     -10.717562      -291.6397 
  36   2.0000     -10.717147      -291.6284 
  37   2.0000     -10.716587      -291.6131 
  38   2.0000     -10.716352      -291.6068 
  39   2.0000     -10.716229      -291.6034 
  40   2.0000     -10.715562      -291.5853 
  41   2.0000     -10.715140      -291.5738 
  42   2.0000     -10.714627      -291.5598 
  43   2.0000     -10.713881      -291.5395 
  44   2.0000     -10.713622      -291.5325 
  45   2.0000     -10.713588      -291.5315 
  46   2.0000     -10.712594      -291.5045 
  47   2.0000     -10.712449      -291.5006 
  48   2.0000     -10.712379      -291.4986 
  49   2.0000     -10.711891      -291.4854 
  50   2.0000     -10.711780      -291.4823 
  51   2.0000     -10.711189      -291.4663 
  52   2.0000     -10.711168      -291.4657 
  53   2.0000     -10.710796      -291.4556 
  54   2.0000     -10.710731      -291.4538 
  55   2.0000     -10.710534      -291.4484 
  56   2.0000     -10.710394      -291.4446 
  57   2.0000     -10.710380      -291.4443 
  58   2.0000     -10.709592      -291.4228 
  59   2.0000     -10.709134      -291.4104 
  60   2.0000     -10.707227      -291.3584 
  61   2.0000     -10.693489      -290.9846 
  62   2.0000      -7.050842      -191.8632 
  63   2.0000      -7.050173      -191.8449 
  64   2.0000      -5.105690      -138.9329 
  65   2.0000      -5.105504      -138.9278 
  66   2.0000      -5.105019      -138.9146 
  67   2.0000      -5.104893      -138.9112 
  68   2.0000      -5.103991      -138.8866 
  69   2.0000      -5.103353      -138.8693 
  70   2.0000      -4.655252      -126.6759 
  71   2.0000      -3.076130       -83.7057 
  72   2.0000      -3.073860       -83.6440 
  73   2.0000      -3.071427       -83.5778 
  74   2.0000      -1.356872       -36.9224 
  75   2.0000      -1.317925       -35.8626 
  76   2.0000      -1.189269       -32.3616 
  77   2.0000      -1.159685       -31.5566 
  78   2.0000      -1.083429       -29.4816 
  79   2.0000      -1.074939       -29.2506 
  80   2.0000      -1.071708       -29.1627 
  81   2.0000      -1.070826       -29.1387 
[...]
   203a -> 228a  :     0.017845 
   204a -> 227a  :     0.013060 
   205a -> 227a  :     0.068922 
   206a -> 227a  :     0.037459 
   208a -> 227a  :     0.015036 
   210a -> 219a  :     0.016285 
   212a -> 218a  :     0.032526 
   212a -> 221a  :     0.010424 
   213a -> 220a  :     0.030470 
   215a -> 218a  :     0.012378 
   215a -> 234a  :     0.019417 
   216a -> 218a  :     0.019110 
   216a -> 219a  :     0.023977 
   216a -> 223a  :     0.017292 
   216a -> 225a  :     0.024246 
   216a -> 226a  :     0.030779 

STATE 34:  E=   0.199685 au      5.434 eV    43825.8 cm**-1 <S**2> =   0.000000
   186a -> 223a  :     0.018569 
   196a -> 223a  :     0.015494 
   199a -> 222a  :     0.024552 
   199a -> 223a  :     0.030689 
   201a -> 222a  :     0.015979 
   201a -> 223a  :     0.019051 
   202a -> 222a  :     0.010382 
   203a -> 217a  :     0.041679 
   203a -> 218a  :     0.038316 
   203a -> 222a  :     0.016951 
   203a -> 223a  :     0.011519 
   204a -> 217a  :     0.011078 
   205a -> 219a  :     0.010908 
   205a -> 221a  :     0.016551 
   205a -> 222a  :     0.019102 
   205a -> 223a  :     0.012746 
   206a -> 218a  :     0.010448 
   215a -> 227a  :     0.016311 
   216a -> 217a  :     0.010230 
   216a -> 222a  :     0.039600 
   216a -> 223a  :     0.109923 

STATE 35:  E=   0.221280 au      6.021 eV    48565.3 cm**-1 <S**2> =   0.000000
   196a -> 218a  :     0.018030 
   202a -> 218a  :     0.011205 
   203a -> 217a  :     0.023105 
   203a -> 218a  :     0.036398 
   203a -> 219a  :     0.010290 
   203a -> 221a  :     0.013147 
   205a -> 218a  :     0.029035 
   206a -> 218a  :     0.016263 
   210a -> 218a  :     0.011243 
   214a -> 217a  :     0.013228 
   214a -> 219a  :     0.012448 
   214a -> 227a  :     0.011886 
   215a -> 217a  :     0.013370 
   215a -> 218a  :     0.010073 
   215a -> 227a  :     0.043405 
   215a -> 228a  :     0.016525 
   216a -> 218a  :     0.014842 
   216a -> 223a  :     0.015841 
   216a -> 224a  :     0.014679 
   216a -> 225a  :     0.037130 
   216a -> 226a  :     0.022839 
   216a -> 227a  :     0.019172 
   216a -> 228a  :     0.019043 

STATE 36:  E=   0.225895 au      6.147 eV    49578.3 cm**-1 <S**2> =   0.000000
   202a -> 221a  :     0.014683 
   202a -> 229a  :     0.013693 
   206a -> 220a  :     0.018938 
   206a -> 224a  :     0.011058 
   207a -> 220a  :     0.032124 
   207a -> 231a  :     0.019168 
   208a -> 228a  :     0.012211 
   210a -> 218a  :     0.011168 
   210a -> 219a  :     0.018723 
   210a -> 220a  :     0.012142 
   210a -> 229a  :     0.014194 
   211a -> 219a  :     0.026253 
   211a -> 229a  :     0.012225 
   212a -> 219a  :     0.025478 
   212a -> 220a  :     0.011068 
   212a -> 224a  :     0.010254 
   212a -> 229a  :     0.015696 
   213a -> 220a  :     0.027676 
   213a -> 228a  :     0.017381 
   213a -> 229a  :     0.016551 
   214a -> 219a  :     0.015076 
   214a -> 221a  :     0.013613 
   216a -> 222a  :     0.011272 
   216a -> 225a  :     0.029320 
   216a -> 226a  :     0.054043 

STATE 37:  E=   0.218044 au      5.933 eV    47855.2 cm**-1 <S**2> =   0.000000
   203a -> 233a  :     0.010590 
   204a -> 221a  :     0.010910 
   204a -> 224a  :     0.010372 
   205a -> 219a  :     0.010731 
   205a -> 221a  :     0.019312 
   206a -> 219a  :     0.041554 
   207a -> 220a  :     0.018437 
   211a -> 219a  :     0.029784 
   211a -> 221a  :     0.010421 
   211a -> 226a  :     0.011508 
   212a -> 221a  :     0.013469 
   213a -> 229a  :     0.019099 
   214a -> 219a  :     0.026157 
   214a -> 220a  :     0.015717 
   216a -> 219a  :     0.013096 
   216a -> 223a  :     0.017777 
   216a -> 226a  :     0.017706 
   216a -> 228a  :     0.057686 
   216a -> 229a  :     0.036565 

STATE 38:  E=   0.215510 au      5.864 eV    47299.0 cm**-1 <S**2> =   0.000000
   199a -> 220a  :     0.013037 
   202a -> 219a  :     0.013405 
   203a -> 221a  :     0.011953 
   203a -> 223a  :     0.014991 
   203a -> 233a  :     0.010262 
   205a -> 233a  :     0.013482 
   208a -> 224a  :     0.022062 
   208a -> 230a  :     0.044670 
   209a -> 225a  :     0.041791 
   209a -> 230a  :     0.019068 
   211a -> 225a  :     0.010493 
   211a -> 226a  :     0.013547 
   211a -> 229a  :     0.011011 
   213a -> 220a  :     0.013295 
   214a -> 221a  :     0.037804 
   216a -> 223a  :     0.034823 
   216a -> 224a  :     0.025532 
   216a -> 233a  :     0.026736 

STATE 39:  E=   0.217711 au      5.924 eV    47782.1 cm**-1 <S**2> =   0.000000
   201a -> 219a  :     0.015605 
   204a -> 221a  :     0.012790 
   204a -> 225a  :     0.015025 
   206a -> 220a  :     0.013888 
   207a -> 224a  :     0.033694 
   208a -> 225a  :     0.012779 
   209a -> 225a  :     0.011804 
   212a -> 219a  :     0.010690 
   213a -> 224a  :     0.011061 
   213a -> 225a  :     0.010508 
   214a -> 217a  :     0.010142 
   214a -> 219a  :     0.029429 
   214a -> 221a  :     0.014486 
   214a -> 226a  :     0.017458 
   216a -> 221a  :     0.010080 
   216a -> 223a  :     0.020407 
   216a -> 225a  :     0.058733 
   216a -> 226a  :     0.034245 
   216a -> 228a  :     0.010881 
   216a -> 229a  :     0.031885 
   216a -> 231a  :     0.010706 

STATE 40:  E=   0.224887 au      6.119 eV    49356.9 cm**-1 <S**2> =   0.000000
   199a -> 223a  :     0.013901 
   201a -> 219a  :     0.022712 
   206a -> 220a  :     0.012164 
   207a -> 224a  :     0.010267 
   208a -> 225a  :     0.024519 
   209a -> 224a  :     0.016035 
   209a -> 230a  :     0.014538 
   213a -> 219a  :     0.028175 
   213a -> 221a  :     0.024926 
   213a -> 226a  :     0.029178 
   214a -> 219a  :     0.038410 
   214a -> 220a  :     0.055599 
   214a -> 229a  :     0.014280 
   214a -> 231a  :     0.019763 
   215a -> 227a  :     0.010097 
   216a -> 219a  :     0.010358 
   216a -> 223a  :     0.011519 
   216a -> 226a  :     0.044611 
   216a -> 229a  :     0.018445 
   216a -> 231a  :     0.024862 
   216a -> 233a  :     0.029377 


-------------------------
TD-DFT-EXCITATION SPECTRA
-------------------------

Center of mass = (  0.0353, -0.0025,  0.0209)
Calculating the Dipole integrals                  ... done
Transforming integrals                            ... done
Calculating the Linear Momentum integrals         ... done
Transforming integrals                            ... done
Calculating angular momentum integrals            ... done
Transforming integrals                            ... done

-----------------------------------------------------------------------------
         ABSORPTION SPECTRUM VIA TRANSITION ELECTRIC DIPOLE MOMENTS
-----------------------------------------------------------------------------
State   Energy    Wavelength  fosc         T2        TX        TY        TZ  
        (cm-1)      (nm)                 (au**2)    (au)      (au)      (au) 
-----------------------------------------------------------------------------
   1   39551.9    252.8   0.662525334   5.51456   1.94237  -0.37081   1.26658
   2   38835.7    257.5   0.313282533   2.65571   1.62838  -0.05890  -0.02465
   3   39540.7    252.9   0.088052236   0.73311   0.23916  -0.63537  -0.52175
   4   38261.1    261.4   0.111174502   0.95658  -0.26859   0.56322   0.75314
   5   35411.5    282.4   0.058964425   0.54818   0.13917   0.33022  -0.64789
   6   40459.0    247.2   0.112344256   0.91414  -0.53170   0.67851   0.41359
   7   41539.6    240.7   0.004283320   0.03395  -0.03314   0.00963  -0.18098
   8   41273.7    242.3   0.127953701   1.02060   0.40344   0.79651  -0.47267
   9   41286.0    242.2   0.076300477   0.60841   0.44345  -0.36055   0.53082
  10   41794.3    239.3   0.040044760   0.31543  -0.08127   0.51011  -0.22049
  11   42261.4    236.6   0.003326903   0.02592  -0.05998   0.14939  -0.00078
  12   42362.5    236.1   0.081110300   0.63033   0.12856  -0.36770   0.69181
  13   42739.7    234.0   0.306979171   2.36458  -1.44204  -0.19702  -0.49625
  14   40713.4    245.6   0.019023427   0.15383  -0.21641   0.14935   0.29101
  15   40426.8    247.4   0.059980927   0.48845   0.55942   0.05230   0.41565
  16   42340.5    236.2   0.114016257   0.88652   0.29573   0.44786  -0.77361
  17   41005.1    243.9   0.084838039   0.68113   0.04352  -0.80807  -0.16202
  18   43995.4    227.3   0.020451718   0.15304  -0.29929  -0.25159   0.01297
  19   47601.6    210.1   0.033510383   0.23176  -0.19527  -0.43996  -0.00798
  20   46067.4    217.1   0.017206709   0.12296   0.29177   0.18724  -0.05269
  21   45905.3    217.8   0.058093118   0.41662   0.27010   0.58049  -0.08181
  22   47320.8    211.3   0.044055222   0.30649  -0.53905   0.03354   0.12163
  23   48790.4    205.0   0.027911877   0.18833   0.11394  -0.15035   0.39083
  24   40846.4    244.8   0.040993994   0.33040  -0.10931   0.18533  -0.53301
  25   46767.8    213.8   0.302011449   2.12594  -1.00343  -0.78126  -0.71323
  26   43311.7    230.9   0.093057603   0.70733  -0.02586  -0.80236   0.25077
  27   42419.0    235.7   0.065429126   0.50779  -0.15035   0.69653   0.00549
  28   42048.9    237.8   0.275789346   2.15923  -0.74248   0.82291  -0.96476
  29   47214.1    211.8   0.180866349   1.26114  -0.19759   0.97976  -0.51202
  30   47946.5    208.6   0.070018913   0.48077   0.62748   0.18350  -0.23100
  31   49119.4    203.6   0.613498548   4.11184   1.80776  -0.86665  -0.30455
  32   50673.9    197.3   0.805390795   5.23236   2.14241  -0.05162   0.79985
  33   50458.5    198.2   0.079263550   0.51715   0.42811   0.52561  -0.24002
  34   43825.8    228.2   0.316874486   2.38031   0.12357  -1.00041   1.16800
  35   48565.3    205.9   0.448051907   3.03723  -0.26704   1.34233  -1.07892
  36   49578.3    201.7   0.925613642   6.14630  -1.96100  -1.45388  -0.43243
  37   47855.2    209.0   0.131195746   0.90254  -0.53477  -0.75023  -0.23177
  38   47299.0    211.4   0.058493613   0.40713   0.40907  -0.20123  -0.44643
  39   47782.1    209.3   0.298097606   2.05385   0.33898  -1.38664  -0.12715
  40   49356.9    202.6   0.277840476   1.85320  -0.87971   1.02751   0.15346

-----------------------------------------------------------------------------
         ABSORPTION SPECTRUM VIA TRANSITION VELOCITY DIPOLE MOMENTS
-----------------------------------------------------------------------------
State   Energy    Wavelength   fosc        P2         PX        PY        PZ  
        (cm-1)      (nm)                 (au**2)     (au)      (au)      (au) 
-----------------------------------------------------------------------------
   1   39551.9    252.8   0.678113271   0.18331  -0.35403   0.06628  -0.23146
   2   38835.7    257.5   0.363477573   0.09648  -0.31036   0.01231   0.00052
   3   39540.7    252.9   0.106261084   0.02872  -0.04946   0.12115   0.10766
   4   38261.1    261.4   0.140783670   0.03681   0.05183  -0.11171  -0.14713
   5   35411.5    282.4   0.089779081   0.02173  -0.02607  -0.06676   0.12881
   6   40459.0    247.2   0.133943118   0.03704   0.10863  -0.13794  -0.07881
   7   41539.6    240.7   0.005272299   0.00150   0.00186  -0.00394   0.03844
   8   41273.7    242.3   0.148895064   0.04200  -0.08003  -0.16133   0.09782
   9   41286.0    242.2   0.092428879   0.02608  -0.08903   0.07597  -0.11128
  10   41794.3    239.3   0.045105591   0.01288   0.01793  -0.10208   0.04630
  11   42261.4    236.6   0.004187190   0.00121   0.01415  -0.03174   0.00132
  12   42362.5    236.1   0.092873771   0.02689  -0.02503   0.07529  -0.14351
  13   42739.7    234.0   0.340466865   0.09945   0.29575   0.04238   0.10093
  14   40713.4    245.6   0.025952954   0.00722   0.04599  -0.03579  -0.06185
  15   40426.8    247.4   0.076028047   0.02101  -0.11763  -0.00354  -0.08459
  16   42340.5    236.2   0.142273548   0.04117  -0.06567  -0.08739   0.17094
  17   41005.1    243.9   0.137564029   0.03855  -0.01600   0.19092   0.04294
  18   43995.4    227.3   0.028251012   0.00849   0.06118   0.06892  -0.00120
  19   47601.6    210.1   0.037880353   0.01232   0.04519   0.10137   0.00247
  20   46067.4    217.1   0.020718427   0.00652  -0.06706  -0.04439   0.00741
  21   45905.3    217.8   0.070717502   0.02219  -0.06191  -0.13421   0.01850
  22   47320.8    211.3   0.049365347   0.01597   0.12206  -0.01581  -0.02857
  23   48790.4    205.0   0.023477415   0.00783  -0.02888   0.02846  -0.07864
  24   40846.4    244.8   0.061155543   0.01707   0.02391  -0.04325   0.12095
  25   46767.8    213.8   0.373315243   0.11932   0.23667   0.18504   0.17051
  26   43311.7    230.9   0.123017134   0.03641  -0.00463   0.18012  -0.06284
  27   42419.0    235.7   0.099010240   0.02870   0.03932  -0.16474   0.00421
  28   42048.9    237.8   0.401603086   0.11541   0.17247  -0.19182   0.22107
  29   47214.1    211.8   0.223320189   0.07206   0.04514  -0.23525   0.12116
  30   47946.5    208.6   0.084076584   0.02755  -0.15182  -0.04440   0.05031
  31   49119.4    203.6   0.698015784   0.23433  -0.43075   0.20768   0.07519
  32   50673.9    197.3   0.871849889   0.30195  -0.51444   0.01697  -0.19238
  33   50458.5    198.2   0.092025864   0.03174  -0.10506  -0.13167   0.05797
  34   43825.8    228.2   0.451926048   0.13536  -0.02452   0.24177  -0.27624
  35   48565.3    205.9   0.540906893   0.17954   0.07063  -0.32467   0.26295
  36   49578.3    201.7   1.075065660   0.36428   0.47681   0.35615   0.10041
  37   47855.2    209.0   0.162935452   0.05329   0.12769   0.18241   0.06094
  38   47299.0    211.4   0.078411379   0.02535  -0.09786   0.05537   0.11272
  39   47782.1    209.3   0.388295670   0.12680  -0.07909   0.34592   0.02977
  40   49356.9    202.6   0.342376499   0.11549   0.21603  -0.25939  -0.03923

-------------------------------------------------------------------
                             CD SPECTRUM
-------------------------------------------------------------------
State  Energy     Wavelength     R         MX        MY        MZ   
       (cm-1)       (nm)     (1e40*cgs)   (au)      (au)      (au)  
-------------------------------------------------------------------
   1   39551.9    252.8    100.24720  -0.15244   1.35596   0.79864
   2   38835.7    257.5    -244.40552  -0.30459   0.31076   0.16708
   3   39540.7    252.9    -61.54888  -0.78583   0.07506  -0.20140
   4   38261.1    261.4     72.54855   0.24869  -0.34776   0.55308
   5   35411.5    282.4    138.81012   0.27325   0.49866  -0.14159
   6   40459.0    247.2     38.30685   0.14206  -0.02036   0.41250
   7   41539.6    240.7     16.83236   0.00325  -0.24854  -0.21109
   8   41273.7    242.3    -142.98208  -0.15956   0.11695   0.70251
   9   41286.0    242.2    -51.64683  -0.01199  -0.10347  -0.26665
  10   41794.3    239.3     22.46642   0.06946   0.17208   0.15639
  11   42261.4    236.6      8.72190  -0.00671   0.12136   0.04198
  12   42362.5    236.1    -10.90831  -0.15968  -0.39196  -0.21210
  13   42739.7    234.0     38.38224  -0.18844   0.05034   0.36355
  14   40713.4    245.6     26.42795  -0.08285  -0.19055   0.22881
  15   40426.8    247.4    -35.97246  -0.02052   0.01437  -0.15776
  16   42340.5    236.2     75.37513  -0.09314   0.39147  -0.01564
  17   41005.1    243.9     48.20813  -0.08180  -0.11198  -0.09460
  18   43995.4    227.3     65.08330  -0.41413  -0.05750  -0.02780
  19   47601.6    210.1    -26.73765   0.00435   0.12716  -0.00987
  20   46067.4    217.1    -40.07778  -0.17344  -0.14096   0.15202
  21   45905.3    217.8    -26.85557   0.27827  -0.27106  -0.30826
  22   47320.8    211.3     40.72563  -0.10828   0.00806   0.22811
  23   48790.4    205.0    -47.18187   0.01282  -0.13086  -0.31014
  24   40846.4    244.8    -24.27749  -0.27872   0.16657   0.21169
  25   46767.8    213.8    -97.49895  -0.46650   0.26664   0.65421
  26   43311.7    230.9     65.44049  -0.01410  -0.04965   0.39323
  27   42419.0    235.7     17.24249   0.84044   0.23665  -0.34525
  28   42048.9    237.8    -51.08947   0.46346  -0.61715  -0.77076
  29   47214.1    211.8    -47.02086  -0.41729   0.12787   0.60051
  30   47946.5    208.6     49.17760  -0.03490   0.50191  -0.14766
  31   49119.4    203.6    -1087.86895  -1.64925  -0.87122   0.26622
  32   50673.9    197.3    1038.29460   1.19064   0.24792  -0.41971
  33   50458.5    198.2    -48.19028  -0.54837   0.25354   0.00299
  34   43825.8    228.2      0.28164  -0.26150   1.22424   1.07676
  35   48565.3    205.9    -324.00979   0.06727  -1.39306  -1.11283
  36   49578.3    201.7     25.48363   0.08033   0.35423  -1.68024
  37   47855.2    209.0    -379.43546   0.27990   1.34668  -1.53245
  38   47299.0    211.4     27.07571   0.14714   0.06101  -0.02132
  39   47782.1    209.3    -337.53401   0.26861   0.73394  -1.65718
  40   49356.9    202.6    -553.23322   0.54634  -0.73811   0.42723

Total run time:    46029.475 sec

           *** ORCA-CIS/TD-DFT FINISHED WITHOUT ERROR ***

Maximum memory used throughout the entire CIS-calculation: 7104.1 MB

-----------------------
CIS/TD-DFT TOTAL ENERGY
-----------------------

    E(SCF)  =  -4536.633511743 Eh
    DE(CIS) =      0.180211807 Eh (Root  1)
    ----------------------------- ---------
    E(tot)  =  -4536.453299935 Eh


-------------------------   --------------------
FINAL SINGLE POINT ENERGY     -4536.453299935383
-------------------------   --------------------


                            ***************************************
                            *     ORCA property calculations      *
                            ***************************************


  WARNING: The energy has been calculated at the MP2 level but the densities
           used in the property calculations are still SCF densities
           MP2 response densities have not been calculated 
           use %mp2 Density relaxed end
           or  %mp2 Density unrelaxed end

                                    ---------------------
                                    Active property flags
                                    ---------------------
   (+) Dipole Moment


------------------------------------------------------------------------------
                       ORCA ELECTRIC PROPERTIES CALCULATION
------------------------------------------------------------------------------

Dipole Moment Calculation                       ... on
Quadrupole Moment Calculation                   ... off
Polarizability Calculation                      ... off
GBWName                                         ... Cu50_DPEPhos-pytri.gbw
Electron density                                ... Cu50_DPEPhos-pytri.scfp
The origin for moment calculation is the CENTER OF MASS  = ( 0.035284, -0.002473  0.020936)

-------------
DIPOLE MOMENT
-------------
                                X             Y             Z
Electronic contribution:     14.14322      -2.85839      11.17151
Nuclear contribution   :    -15.34854       1.07561      -9.10706
                        -----------------------------------------
Total Dipole Moment    :     -1.20532      -1.78278       2.06444
                        -----------------------------------------
Magnitude (a.u.)       :      2.98212
Magnitude (Debye)      :      7.57994



--------------------
Rotational spectrum 
--------------------
 
Rotational constants in cm-1:     0.001847     0.001372     0.001226 
Rotational constants in MHz :    55.376394    41.117827    36.746550 

 Dipole components along the rotational axes: 
x,y,z [a.u.] :     1.219287    -1.774348     2.063503 
x,y,z [Debye]:     3.099181    -4.510033     5.245007 

 

Timings for individual modules:

Sum of individual times         ...    52002.419 sec (= 866.707 min)
GTO integral calculation        ...        3.880 sec (=   0.065 min)   0.0 %
SCF iterations                  ...     1815.442 sec (=  30.257 min)   3.5 %
MP2 module                      ...     4152.272 sec (=  69.205 min)   8.0 %
CIS module                      ...    46030.826 sec (= 767.180 min)  88.5 %
                             ****ORCA TERMINATED NORMALLY****
TOTAL RUN TIME: 0 days 14 hours 26 minutes 50 seconds 946 msec
