
                                 *****************
                                 * O   R   C   A *
                                 *****************

                                            #,                                       
                                            ###                                      
                                            ####                                     
                                            #####                                    
                                            ######                                   
                                           ########,                                 
                                     ,,################,,,,,                         
                               ,,#################################,,                 
                          ,,##########################################,,             
                       ,#########################################, ''#####,          
                    ,#############################################,,   '####,        
                  ,##################################################,,,,####,       
                ,###########''''           ''''###############################       
              ,#####''   ,,,,##########,,,,          '''####'''          '####       
            ,##' ,,,,###########################,,,                        '##       
           ' ,,###''''                  '''############,,,                           
         ,,##''                                '''############,,,,        ,,,,,,###''
      ,#''                                            '''#######################'''  
     '                                                          ''''####''''         
             ,#######,   #######,   ,#######,      ##                                
            ,#'     '#,  ##    ##  ,#'     '#,    #''#        ######   ,####,        
            ##       ##  ##   ,#'  ##            #'  '#       #        #'  '#        
            ##       ##  #######   ##           ,######,      #####,   #    #        
            '#,     ,#'  ##    ##  '#,     ,#' ,#      #,         ##   #,  ,#        
             '#######'   ##     ##  '#######'  #'      '#     #####' # '####'        



                  #######################################################
                  #                        -***-                        #
                  #          Department of theory and spectroscopy      #
                  #    Directorship and core code : Frank Neese         #
                  #        Max Planck Institute fuer Kohlenforschung    #
                  #                Kaiser Wilhelm Platz 1               #
                  #                 D-45470 Muelheim/Ruhr               #
                  #                      Germany                        #
                  #                                                     #
                  #                  All rights reserved                #
                  #                        -***-                        #
                  #######################################################


                         Program Version 5.0.2 -  RELEASE  -


 With contributions from (in alphabetic order):
   Daniel Aravena         : Magnetic Suceptibility
   Michael Atanasov       : Ab Initio Ligand Field Theory (pilot matlab implementation)
   Alexander A. Auer      : GIAO ZORA, VPT2 properties, NMR spectrum
   Ute Becker             : Parallelization
   Giovanni Bistoni       : ED, misc. LED, open-shell LED, HFLD
   Martin Brehm           : Molecular dynamics
   Dmytro Bykov           : SCF Hessian
   Vijay G. Chilkuri      : MRCI spin determinant printing, contributions to CSF-ICE
   Dipayan Datta          : RHF DLPNO-CCSD density
   Achintya Kumar Dutta   : EOM-CC, STEOM-CC
   Dmitry Ganyushin       : Spin-Orbit,Spin-Spin,Magnetic field MRCI
   Miquel Garcia          : C-PCM and meta-GGA Hessian, CC/C-PCM, Gaussian charge scheme
   Yang Guo               : DLPNO-NEVPT2, F12-NEVPT2, CIM, IAO-localization
   Andreas Hansen         : Spin unrestricted coupled pair/coupled cluster methods
   Benjamin Helmich-Paris : MC-RPA, TRAH-SCF, COSX integrals
   Lee Huntington         : MR-EOM, pCC
   Robert Izsak           : Overlap fitted RIJCOSX, COSX-SCS-MP3, EOM
   Marcus Kettner         : VPT2
   Christian Kollmar      : KDIIS, OOCD, Brueckner-CCSD(T), CCSD density, CASPT2, CASPT2-K
   Simone Kossmann        : Meta GGA functionals, TD-DFT gradient, OOMP2, MP2 Hessian
   Martin Krupicka        : Initial AUTO-CI
   Lucas Lang             : DCDCAS
   Marvin Lechner         : AUTO-CI (C++ implementation), FIC-MRCC
   Dagmar Lenk            : GEPOL surface, SMD
   Dimitrios Liakos       : Extrapolation schemes; Compound Job, initial MDCI parallelization
   Dimitrios Manganas     : Further ROCIS development; embedding schemes
   Dimitrios Pantazis     : SARC Basis sets
   Anastasios Papadopoulos: AUTO-CI, single reference methods and gradients
   Taras Petrenko         : DFT Hessian,TD-DFT gradient, ASA, ECA, R-Raman, ABS, FL, XAS/XES, NRVS
   Peter Pinski           : DLPNO-MP2, DLPNO-MP2 Gradient
   Christoph Reimann      : Effective Core Potentials
   Marius Retegan         : Local ZFS, SOC
   Christoph Riplinger    : Optimizer, TS searches, QM/MM, DLPNO-CCSD(T), (RO)-DLPNO pert. Triples
   Tobias Risthaus        : Range-separated hybrids, TD-DFT gradient, RPA, STAB
   Michael Roemelt        : Original ROCIS implementation
   Masaaki Saitow         : Open-shell DLPNO-CCSD energy and density
   Barbara Sandhoefer     : DKH picture change effects
   Avijit Sen             : IP-ROCIS
   Kantharuban Sivalingam : CASSCF convergence, NEVPT2, FIC-MRCI
   Bernardo de Souza      : ESD, SOC TD-DFT
   Georgi Stoychev        : AutoAux, RI-MP2 NMR, DLPNO-MP2 response
   Willem Van den Heuvel  : Paramagnetic NMR
   Boris Wezisla          : Elementary symmetry handling
   Frank Wennmohs         : Technical directorship


 We gratefully acknowledge several colleagues who have allowed us to
 interface, adapt or use parts of their codes:
   Stefan Grimme, W. Hujo, H. Kruse, P. Pracht,  : VdW corrections, initial TS optimization,
                  C. Bannwarth, S. Ehlert          DFT functionals, gCP, sTDA/sTD-DF
   Ed Valeev, F. Pavosevic, A. Kumar             : LibInt (2-el integral package), F12 methods
   Garnet Chan, S. Sharma, J. Yang, R. Olivares  : DMRG
   Ulf Ekstrom                                   : XCFun DFT Library
   Mihaly Kallay                                 : mrcc  (arbitrary order and MRCC methods)
   Jiri Pittner, Ondrej Demel                    : Mk-CCSD
   Frank Weinhold                                : gennbo (NPA and NBO analysis)
   Christopher J. Cramer and Donald G. Truhlar   : smd solvation model
   Lars Goerigk                                  : TD-DFT with DH, B97 family of functionals
   V. Asgeirsson, H. Jonsson                     : NEB implementation
   FAccTs GmbH                                   : IRC, NEB, NEB-TS, DLPNO-Multilevel, CI-OPT
                                                   MM, QMMM, 2- and 3-layer-ONIOM, Crystal-QMMM,
                                                   LR-CPCM, SF, NACMEs, symmetry and pop. for TD-DFT,
                                                   nearIR, NL-DFT gradient (VV10), updates on ESD,
                                                   ML-optimized integration grids
   S Lehtola, MJT Oliveira, MAL Marques          : LibXC Library
   Liviu Ungur et al                             : ANISO software


 Your calculation uses the libint2 library for the computation of 2-el integrals
 For citations please refer to: http://libint.valeyev.net

 Your ORCA version has been built with support for libXC version: 5.1.0
 For citations please refer to: https://tddft.org/programs/libxc/

 This ORCA versions uses:
   CBLAS   interface :  Fast vector & matrix operations
   LAPACKE interface :  Fast linear algebra routines
   SCALAPACK package :  Parallel linear algebra routines
   Shared memory     :  Shared parallel matrices
   BLAS/LAPACK       :  OpenBLAS 0.3.15  USE64BITINT DYNAMIC_ARCH NO_AFFINITY Zen SINGLE_THREADED
        Core in use  :  Zen
   Copyright (c) 2011-2014, The OpenBLAS Project


Your calculation utilizes the SMD solvation module
Please cite in your paper:
A.V. Marenich, C.J. Cramer, D.G. Truhlar J. Phys. Chem. B, 113, (2009), 6378 

================================================================================

----- Orbital basis set information -----
Your calculation utilizes the basis: def2-SVP
   F. Weigend and R. Ahlrichs, Phys. Chem. Chem. Phys. 7, 3297 (2005).

----- AuxJ basis set information -----
Your calculation utilizes the auxiliary basis: def2/J
   F. Weigend, Phys. Chem. Chem. Phys. 8, 1057 (2006).

----- AuxC basis set information -----
Your calculation utilizes the auxiliary basis: def2-SVP/C
  H-La, Hf-Rn : A. Hellweg, C. Hattig, S. Hofener and W. Klopper, Theor. Chem. Acc. 117, 587 (2007).
        Ce-Lu : J. Chmela and M. E. Harding, Mol. Phys. (2018).

================================================================================
                                        WARNINGS
                       Please study these warnings very carefully!
================================================================================

INFO   : Checking CIS options ...
  ===> : (D) CORRECTION FOUND - SETTING MODE=3
  ===> : JK MODE FOUND - ACTIVATING RI-MP2 CODE
  ===> : MP2 AND CIS FOUND - CHECKING
WARNING: CIS(D) and MP2 runs must have the same orbital window
  ===> : adjusting orbital windows

WARNING: No MP2 level density has been requested!
         To caclulate MP2 level properties use
         %mp2 Density relaxed end
         or
         %mp2 Density unrelaxed end
         Otherwise for double-hybrid DFT only the energy is correct!

WARNING: The frozen-core approximation is turned on by default for 
         the MP2 part of double-hybrid DFT.

WARNING: CIS/ROCIS methods need fully converged wavefunctions
  ===> : Setting SCFConvForced true
         You can overwrite this default with %scf ConvForced false 


INFO   : the flag for use of the SHARK integral package has been found!

================================================================================
                                       INPUT FILE
================================================================================
NAME = Cu50_DPEPhos-pytri.inp
|  1> %maxcore 26000
|  2> %pal
|  3>  nprocs= 8
|  4> end
|  5> ! RI-B2GP-PLYP  def2-SVP def2/J def2-SVP/C RIJCOSX CPCM TIGHTSCF
|  6> 
|  7> %TDDFT 
|  8>     DCORR      4
|  9>     NROOTS    40
| 10>     TDA       FALSE
| 11> END
| 12> 
| 13> %CPCM
| 14>     SMD		TRUE
| 15>     SMDsolvent	"CH2Cl2"
| 16> END
| 17> 
| 18> * xyz 1 1
| 19> C                   1.46688700    2.36797500   -1.12315800
| 20> C                   1.19773800    1.47972700   -2.18209700
| 21> C                   1.96232300    1.48629300   -3.34741800
| 22> C                   3.00456100    2.40387300   -3.47233000
| 23> C                   3.27463300    3.31080600   -2.44823500
| 24> C                   2.51031500    3.28810700   -1.28191700
| 25> C                   0.84611100   -1.66525100   -2.14769300
| 26> C                   0.10003300   -0.58342000   -2.65183900
| 27> C                  -0.73570300   -0.72464900   -3.75572900
| 28> C                  -0.82548700   -1.95968900   -4.39459700
| 29> C                  -0.08100500   -3.04285100   -3.92732300
| 30> C                   0.74111100   -2.89614100   -2.81133400
| 31> C                  -1.10204500    2.72998200    0.21863200
| 32> C                  -1.56400800    3.25631800   -0.99294400
| 33> C                  -2.89299400    3.66493100   -1.11989700
| 34> C                  -3.76945500    3.55294300   -0.04138000
| 35> C                  -3.31487000    3.02915200    1.17132900
| 36> C                  -1.99195900    2.61443700    1.29855600
| 37> C                   1.37067900    3.26383900    1.60855000
| 38> C                   2.39835600    2.79465700    2.43899300
| 39> C                   3.05204500    3.66186700    3.31334100
| 40> C                   2.67399800    5.00326700    3.37535900
| 41> C                   1.64425900    5.47608500    2.55989700
| 42> C                   0.99569100    4.61324200    1.67796300
| 43> C                   2.04170400   -3.11777200    0.04572500
| 44> C                   0.89406900   -3.83573300    0.42641900
| 45> C                   1.00955400   -5.07330000    1.05168400
| 46> C                   2.27305100   -5.60479100    1.32467400
| 47> C                   3.41524900   -4.89469700    0.96013300
| 48> C                   3.30410300   -3.65723600    0.32178800
| 49> C                   3.44990100   -0.86943700   -1.13991700
| 50> C                   4.08516100    0.13537000   -0.39937500
| 51> C                   5.35098800    0.59022600   -0.76886800
| 52> C                   5.98734200    0.04570300   -1.88381200
| 53> C                   5.35844300   -0.95471200   -2.62901300
| 54> C                   4.09493600   -1.41174600   -2.26112400
| 55> H                   1.74438700    0.77488800   -4.14727200
| 56> H                   3.60775500    2.40689200   -4.38332100
| 57> H                   4.08925700    4.03075300   -2.55053600
| 58> H                   2.74391700    3.98328200   -0.47098600
| 59> H                  -1.30645400    0.14043800   -4.09971100
| 60> H                  -1.47963400   -2.07398100   -5.26174100
| 61> H                  -0.14538200   -4.01087300   -4.42864900
| 62> H                   1.30440400   -3.75667100   -2.43967600
| 63> H                  -3.24324100    4.07500600   -2.07041300
| 64> H                  -4.81034500    3.86923300   -0.14545700
| 65> H                  -3.99785900    2.93551100    2.01957900
| 66> H                  -1.64311800    2.18950600    2.24656400
| 67> H                   3.85341800    3.28696200    3.95429600
| 68> H                   3.18028500    5.68270100    4.06516400
| 69> H                   1.34552500    6.52594500    2.60900500
| 70> H                   0.19513800    4.99291500    1.03600900
| 71> H                   0.10916300   -5.62372000    1.33584200
| 72> H                   2.36471300   -6.57232800    1.82367200
| 73> H                   4.40599100   -5.30467600    1.17078800
| 74> H                   4.20977500   -3.11155900    0.04303200
| 75> H                   5.83654300    1.37855800   -0.18827300
| 76> H                   6.97670900    0.40441200   -2.17779700
| 77> H                   5.85609100   -1.38007400   -3.50384500
| 78> H                   3.60629100   -2.19459500   -2.84949300
| 79> O                   0.13316500    0.63376700   -2.00107900
| 80> P                   0.59093900    2.08373300    0.45431600
| 81> P                   1.79852300   -1.42758600   -0.59831700
| 82> H                   2.68540700    1.73836900    2.39709800
| 83> H                  -0.88518100    3.35288700   -1.84504700
| 84> H                   3.57363700    0.56917800    0.46774400
| 85> H                  -0.09854200   -3.41398900    0.23217800
| 86> Cu                  0.56426300   -0.15140400    0.85571700
| 87> C                  -0.95375900   -1.64827400    2.90368500
| 88> C                  -1.25748900   -2.43960500    4.01523800
| 89> C                  -0.23772200   -2.78212500    4.89550800
| 90> C                   1.05707200   -2.33069600    4.64059100
| 91> C                   1.27572800   -1.53941400    3.51841400
| 92> H                  -2.27949900   -2.78910500    4.17195300
| 93> H                   1.88792500   -2.58370600    5.30037000
| 94> H                   2.27661600   -1.16453200    3.28178500
| 95> N                   0.29977700   -1.19524500    2.67002100
| 96> H                  -0.44942600   -3.40283300    5.76826400
| 97> C                  -1.93163300   -1.28156700    1.88784800
| 98> C                  -3.30782600   -1.37136700    1.80446200
| 99> H                  -4.06154100   -1.72406100    2.50034100
|100> N                  -1.49322600   -0.72511400    0.72215600
|101> N                  -2.49176800   -0.47304000   -0.06545300
|102> N                  -3.60770300   -0.85901500    0.58462300
|103> C                  -4.88222700   -0.69022200   -0.02160800
|104> C                  -6.00534500   -1.31703700    0.51966300
|105> C                  -5.00180300    0.11520200   -1.15820800
|106> C                  -7.24840500   -1.12609400   -0.07706500
|107> H                  -5.91859900   -1.95914200    1.39765800
|108> C                  -6.25114600    0.28862800   -1.74041900
|109> H                  -4.11935900    0.60574700   -1.57034300
|110> C                  -7.40026000   -0.32376900   -1.21578800
|111> H                  -8.12387100   -1.61866700    0.35381700
|112> H                  -6.33931000    0.92444000   -2.62558700
|113> C                  -8.73198100   -0.14022600   -1.86618700
|114> H                  -8.81512500   -0.74864900   -2.78044500
|115> H                  -9.55579200   -0.43607700   -1.20470600
|116> H                  -8.89461100    0.90203700   -2.17348600
|117> *
|118> 
|119>                          ****END OF INPUT****
================================================================================

                       ****************************
                       * Single Point Calculation *
                       ****************************

---------------------------------
CARTESIAN COORDINATES (ANGSTROEM)
---------------------------------
  C      1.466887    2.367975   -1.123158
  C      1.197738    1.479727   -2.182097
  C      1.962323    1.486293   -3.347418
  C      3.004561    2.403873   -3.472330
  C      3.274633    3.310806   -2.448235
  C      2.510315    3.288107   -1.281917
  C      0.846111   -1.665251   -2.147693
  C      0.100033   -0.583420   -2.651839
  C     -0.735703   -0.724649   -3.755729
  C     -0.825487   -1.959689   -4.394597
  C     -0.081005   -3.042851   -3.927323
  C      0.741111   -2.896141   -2.811334
  C     -1.102045    2.729982    0.218632
  C     -1.564008    3.256318   -0.992944
  C     -2.892994    3.664931   -1.119897
  C     -3.769455    3.552943   -0.041380
  C     -3.314870    3.029152    1.171329
  C     -1.991959    2.614437    1.298556
  C      1.370679    3.263839    1.608550
  C      2.398356    2.794657    2.438993
  C      3.052045    3.661867    3.313341
  C      2.673998    5.003267    3.375359
  C      1.644259    5.476085    2.559897
  C      0.995691    4.613242    1.677963
  C      2.041704   -3.117772    0.045725
  C      0.894069   -3.835733    0.426419
  C      1.009554   -5.073300    1.051684
  C      2.273051   -5.604791    1.324674
  C      3.415249   -4.894697    0.960133
  C      3.304103   -3.657236    0.321788
  C      3.449901   -0.869437   -1.139917
  C      4.085161    0.135370   -0.399375
  C      5.350988    0.590226   -0.768868
  C      5.987342    0.045703   -1.883812
  C      5.358443   -0.954712   -2.629013
  C      4.094936   -1.411746   -2.261124
  H      1.744387    0.774888   -4.147272
  H      3.607755    2.406892   -4.383321
  H      4.089257    4.030753   -2.550536
  H      2.743917    3.983282   -0.470986
  H     -1.306454    0.140438   -4.099711
  H     -1.479634   -2.073981   -5.261741
  H     -0.145382   -4.010873   -4.428649
  H      1.304404   -3.756671   -2.439676
  H     -3.243241    4.075006   -2.070413
  H     -4.810345    3.869233   -0.145457
  H     -3.997859    2.935511    2.019579
  H     -1.643118    2.189506    2.246564
  H      3.853418    3.286962    3.954296
  H      3.180285    5.682701    4.065164
  H      1.345525    6.525945    2.609005
  H      0.195138    4.992915    1.036009
  H      0.109163   -5.623720    1.335842
  H      2.364713   -6.572328    1.823672
  H      4.405991   -5.304676    1.170788
  H      4.209775   -3.111559    0.043032
  H      5.836543    1.378558   -0.188273
  H      6.976709    0.404412   -2.177797
  H      5.856091   -1.380074   -3.503845
  H      3.606291   -2.194595   -2.849493
  O      0.133165    0.633767   -2.001079
  P      0.590939    2.083733    0.454316
  P      1.798523   -1.427586   -0.598317
  H      2.685407    1.738369    2.397098
  H     -0.885181    3.352887   -1.845047
  H      3.573637    0.569178    0.467744
  H     -0.098542   -3.413989    0.232178
  Cu     0.564263   -0.151404    0.855717
  C     -0.953759   -1.648274    2.903685
  C     -1.257489   -2.439605    4.015238
  C     -0.237722   -2.782125    4.895508
  C      1.057072   -2.330696    4.640591
  C      1.275728   -1.539414    3.518414
  H     -2.279499   -2.789105    4.171953
  H      1.887925   -2.583706    5.300370
  H      2.276616   -1.164532    3.281785
  N      0.299777   -1.195245    2.670021
  H     -0.449426   -3.402833    5.768264
  C     -1.931633   -1.281567    1.887848
  C     -3.307826   -1.371367    1.804462
  H     -4.061541   -1.724061    2.500341
  N     -1.493226   -0.725114    0.722156
  N     -2.491768   -0.473040   -0.065453
  N     -3.607703   -0.859015    0.584623
  C     -4.882227   -0.690222   -0.021608
  C     -6.005345   -1.317037    0.519663
  C     -5.001803    0.115202   -1.158208
  C     -7.248405   -1.126094   -0.077065
  H     -5.918599   -1.959142    1.397658
  C     -6.251146    0.288628   -1.740419
  H     -4.119359    0.605747   -1.570343
  C     -7.400260   -0.323769   -1.215788
  H     -8.123871   -1.618667    0.353817
  H     -6.339310    0.924440   -2.625587
  C     -8.731981   -0.140226   -1.866187
  H     -8.815125   -0.748649   -2.780445
  H     -9.555792   -0.436077   -1.204706
  H     -8.894611    0.902037   -2.173486

----------------------------
CARTESIAN COORDINATES (A.U.)
----------------------------
  NO LB      ZA    FRAG     MASS         X           Y           Z
   0 C     6.0000    0    12.011    2.772015    4.474824   -2.122461
   1 C     6.0000    0    12.011    2.263397    2.796279   -4.123566
   2 C     6.0000    0    12.011    3.708253    2.808687   -6.325703
   3 C     6.0000    0    12.011    5.677797    4.542662   -6.561753
   4 C     6.0000    0    12.011    6.188160    6.256517   -4.626494
   5 C     6.0000    0    12.011    4.743808    6.213622   -2.422472
   6 C     6.0000    0    12.011    1.598918   -3.146868   -4.058552
   7 C     6.0000    0    12.011    0.189035   -1.102504   -5.011249
   8 C     6.0000    0    12.011   -1.390277   -1.369388   -7.097299
   9 C     6.0000    0    12.011   -1.559944   -3.703276   -8.304585
  10 C     6.0000    0    12.011   -0.153077   -5.750155   -7.421565
  11 C     6.0000    0    12.011    1.400497   -5.472913   -5.312651
  12 C     6.0000    0    12.011   -2.082563    5.158918    0.413155
  13 C     6.0000    0    12.011   -2.955547    6.153549   -1.876392
  14 C     6.0000    0    12.011   -5.466966    6.925716   -2.116299
  15 C     6.0000    0    12.011   -7.123238    6.714089   -0.078197
  16 C     6.0000    0    12.011   -6.264196    5.724268    2.213491
  17 C     6.0000    0    12.011   -3.764257    4.940570    2.453915
  18 C     6.0000    0    12.011    2.590208    6.167762    3.039719
  19 C     6.0000    0    12.011    4.532236    5.281136    4.609029
  20 C     6.0000    0    12.011    5.767529    6.919926    6.261307
  21 C     6.0000    0    12.011    5.053124    9.454804    6.378504
  22 C     6.0000    0    12.011    3.107199   10.348301    4.837504
  23 C     6.0000    0    12.011    1.881583    8.717764    3.170891
  24 C     6.0000    0    12.011    3.858261   -5.891735    0.086408
  25 C     6.0000    0    12.011    1.689546   -7.248485    0.805815
  26 C     6.0000    0    12.011    1.907781   -9.587148    1.987395
  27 C     6.0000    0    12.011    4.295444  -10.591520    2.503271
  28 C     6.0000    0    12.011    6.453885   -9.249637    1.814388
  29 C     6.0000    0    12.011    6.243850   -6.911174    0.608091
  30 C     6.0000    0    12.011    6.519368   -1.642998   -2.154131
  31 C     6.0000    0    12.011    7.719836    0.255812   -0.754709
  32 C     6.0000    0    12.011   10.111902    1.115365   -1.452950
  33 C     6.0000    0    12.011   11.314437    0.086366   -3.559889
  34 C     6.0000    0    12.011   10.125990   -1.804144   -4.968115
  35 C     6.0000    0    12.011    7.738308   -2.667813   -4.272905
  36 H     1.0000    0     1.008    3.296414    1.464326   -7.837208
  37 H     1.0000    0     1.008    6.817669    4.548367   -8.283276
  38 H     1.0000    0     1.008    7.727576    7.617019   -4.819815
  39 H     1.0000    0     1.008    5.185252    7.527312   -0.890035
  40 H     1.0000    0     1.008   -2.468840    0.265389   -7.747331
  41 H     1.0000    0     1.008   -2.796103   -3.919256   -9.943249
  42 H     1.0000    0     1.008   -0.274732   -7.579452   -8.368934
  43 H     1.0000    0     1.008    2.464966   -7.099079   -4.610319
  44 H     1.0000    0     1.008   -6.128837    7.700645   -3.912514
  45 H     1.0000    0     1.008   -9.090235    7.311791   -0.274874
  46 H     1.0000    0     1.008   -7.554859    5.547312    3.816451
  47 H     1.0000    0     1.008   -3.105043    4.137567    4.245391
  48 H     1.0000    0     1.008    7.281905    6.211458    7.472536
  49 H     1.0000    0     1.008    6.009868   10.738749    7.682047
  50 H     1.0000    0     1.008    2.542674   12.332249    4.930305
  51 H     1.0000    0     1.008    0.368757    9.435242    1.957773
  52 H     1.0000    0     1.008    0.206288  -10.627291    2.524376
  53 H     1.0000    0     1.008    4.468660  -12.419900    3.446241
  54 H     1.0000    0     1.008    8.326116  -10.024385    2.212469
  55 H     1.0000    0     1.008    7.955322   -5.879994    0.081319
  56 H     1.0000    0     1.008   11.029468    2.605097   -0.355784
  57 H     1.0000    0     1.008   13.184069    0.764228   -4.115440
  58 H     1.0000    0     1.008   11.066408   -2.607962   -6.621307
  59 H     1.0000    0     1.008    6.814902   -4.147184   -5.384761
  60 O     8.0000    0    15.999    0.251645    1.197646   -3.781491
  61 P    15.0000    0    30.974    1.116713    3.937685    0.858533
  62 P    15.0000    0    30.974    3.398716   -2.697747   -1.130655
  63 H     1.0000    0     1.008    5.074684    3.285041    4.529859
  64 H     1.0000    0     1.008   -1.672750    6.336038   -3.486634
  65 H     1.0000    0     1.008    6.753195    1.075591    0.883908
  66 H     1.0000    0     1.008   -0.186217   -6.451504    0.438753
  67 Cu   29.0000    0    63.550    1.066303   -0.286112    1.617071
  68 C     6.0000    0    12.011   -1.802343   -3.114786    5.487169
  69 C     6.0000    0    12.011   -2.376310   -4.610185    7.587700
  70 C     6.0000    0    12.011   -0.449229   -5.257454    9.251169
  71 C     6.0000    0    12.011    1.997577   -4.404377    8.769446
  72 C     6.0000    0    12.011    2.410777   -2.909071    6.648839
  73 H     1.0000    0     1.008   -4.307629   -5.270645    7.883849
  74 H     1.0000    0     1.008    3.567661   -4.882497   10.016248
  75 H     1.0000    0     1.008    4.302181   -2.200647    6.201675
  76 N     7.0000    0    14.007    0.566496   -2.258686    5.045608
  77 H     1.0000    0     1.008   -0.849292   -6.430422   10.900439
  78 C     6.0000    0    12.011   -3.650257   -2.421811    3.567516
  79 C     6.0000    0    12.011   -6.250885   -2.591508    3.409939
  80 H     1.0000    0     1.008   -7.675200   -3.258003    4.724960
  81 N     7.0000    0    14.007   -2.821788   -1.370267    1.364677
  82 N     7.0000    0    14.007   -4.708759   -0.893916   -0.123688
  83 N     7.0000    0    14.007   -6.817571   -1.623303    1.104777
  84 C     6.0000    0    12.011   -9.226072   -1.304331   -0.040833
  85 C     6.0000    0    12.011  -11.348457   -2.488839    0.982021
  86 C     6.0000    0    12.011   -9.452038    0.217700   -2.188696
  87 C     6.0000    0    12.011  -13.697500   -2.128009   -0.145632
  88 H     1.0000    0     1.008  -11.184531   -3.702242    2.641191
  89 C     6.0000    0    12.011  -11.812954    0.545428   -3.288915
  90 H     1.0000    0     1.008   -7.784460    1.144696   -2.967518
  91 C     6.0000    0    12.011  -13.984465   -0.611835   -2.297506
  92 H     1.0000    0     1.008  -15.351891   -3.058837    0.668617
  93 H     1.0000    0     1.008  -11.979560    1.746938   -4.961640
  94 C     6.0000    0    12.011  -16.501053   -0.264989   -3.526582
  95 H     1.0000    0     1.008  -16.658172   -1.414742   -5.254280
  96 H     1.0000    0     1.008  -18.057830   -0.824066   -2.276564
  97 H     1.0000    0     1.008  -16.808379    1.704603   -4.107293

--------------------------------
INTERNAL COORDINATES (ANGSTROEM)
--------------------------------
 C      0   0   0     0.000000000000     0.00000000     0.00000000
 C      1   0   0     1.408111323520     0.00000000     0.00000000
 C      2   1   0     1.393774145126   121.39509119     0.00000000
 C      3   2   1     1.394208059361   119.21528953   359.17749642
 C      4   3   2     1.394358964076   120.46829974   359.58209261
 C      5   4   3     1.394630749284   119.83360649     0.94993817
 C      2   1   3     3.164760939286   129.78636276   128.47253469
 C      7   2   1     1.407534683040    44.86298418   128.76660077
 C      8   7   2     1.391751926256   121.62759905   152.05943505
 C      9   8   7     1.393390573271   119.49201671   359.02235853
 C     10   9   8     1.394933101494   120.01824958     0.00000000
 C     11  10   9     1.393854364587   120.08325483     0.78112849
 C      1   2   3     2.920763785857   104.80595165   152.63152099
 C     13   1   2     1.399412663242    86.51594362   298.56336903
 C     14  13   1     1.396168126041   120.20051586   178.29100714
 C     15  14  13     1.394246791624   120.30029748     0.04897891
 C     16  15  14     1.397020992178   119.80534359     0.00000000
 C     17  16  15     1.392217208152   120.01396372   359.67476362
 C      1   2   3     2.876466040652   154.72269655   201.19177253
 C     19   1   2     1.402101045468   115.70543998    87.35017359
 C     20  19   1     1.394219106857   120.46067470   135.47426538
 C     21  20  19     1.395033951749   119.92805440     0.68920242
 C     22  21  20     1.396029205529   119.97284067   359.84544428
 C     23  22  21     1.393896005314   120.20801945   359.68985156
 C      7   2   1     2.889695900923   117.50299668   337.20218840
 C     25   7   2     1.406222604136    97.14985657   128.13832469
 C     26  25   7     1.391353723874   120.53396255   152.68182250
 C     27  26  25     1.397651920970   120.06968938     0.94664257
 C     28  27  26     1.393463275699   119.74388276   359.56812803
 C     29  28  27     1.396834814451   120.38302126   359.87597173
 C      7   2   1     2.903214555088    68.39069164   301.16503269
 C     31   7   2     1.400569465829   141.90513505    35.36534344
 C     32  31   7     1.394896788911   120.36375605   219.03517593
 C     33  32  31     1.394471883539   119.90570557     0.19935705
 C     34  33  32     1.397021350884   120.04587376   359.94745973
 C     35  34  33     1.393080160122   120.15681794     0.00000000
 H      3   2   1     1.092409994204   119.97821441   178.90778345
 H      4   3   2     1.092591743552   119.28961450   179.70860270
 H      5   4   3     1.091971354380   120.29961208   180.22819101
 H      6   5   4     1.093365109097   119.52633803   178.33709637
 H      9   8   7     1.091996262766   118.90229769   179.02950228
 H     10   9   8     1.092204044860   119.69374032   180.05502015
 H     11  10   9     1.092034225145   120.20360560   180.29583494
 H     12  11  10     1.093590670092   119.54344778   178.69664909
 H     15  14  13     1.092847259634   119.60217793   179.97173385
 H     16  15  14     1.092851031993   120.12069335   180.29349992
 H     17  16  15     1.093055658922   120.16222845   180.21226401
 H     18  17  16     1.095890307515   119.80351742   180.95767133
 H     21  20  19     1.092508927277   119.89349729   180.16910254
 H     22  21  20     1.092606070251   120.02871815   179.55751989
 H     23  22  21     1.092638832378   120.05584508   179.86040153
 H     24  23  22     1.094139676117   119.79274991   180.50704281
 H     27  26  25     1.092891530869   119.76422986   180.43109142
 H     28  27  26     1.092487424466   120.12203526   179.45023087
 H     29  28  27     1.092715891726   120.10336854   179.99589051
 H     30  29  28     1.093485284514   119.51715146   179.92842781
 H     33  32  31     1.092850197545   119.84707920   179.65956476
 H     34  33  32     1.092678538087   120.00800738   179.68262577
 H     35  34  33     1.092665269500   120.05443085   179.87766279
 H     36  35  34     1.094442585514   119.84465954   179.90530623
 O      2   1   3     1.371762191582   115.98379671   181.01120940
 P     19   1   2     1.825623390952    38.05114789   343.84954019
 P     25   7   2     1.825008441383    37.95264883     1.81185304
 H     20  19   1     1.095398469312   119.47866947   315.43685053
 H     14  13   1     1.093714400700   120.18792648   358.09936064
 H     32  31   7     1.096239729074   119.37287619    38.38236278
 H     26  25   7     1.095844042251   119.65339133   332.42692162
 Cu    62  19   1     2.271050809768   121.96902350   122.20276862
 C     68  62  19     2.956211007085   128.81563123    70.26114424
 C     69  68  62     1.397857909900   161.64016263   244.58250011
 C     70  69  68     1.390007178970   118.92513794     9.01885428
 C     71  70  69     1.394726611693   119.04996246   359.75691582
 C     72  71  70     1.390402412681   118.53574170     0.70590444
 H     70  69  68     1.091427634488   119.92855820   189.87495586
 H     72  71  70     1.090705779094   121.43529616   180.56034964
 H     73  72  71     1.094671907975   120.87366710   180.01502471
 N     73  72  71     1.338171639742   122.91303984   359.78906588
 H     71  70  69     1.091695946872   120.27262626   180.27117180
 C     69  68  62     1.456927038082    74.58434856    74.83861442
 C     79  69  68     1.381638316726   133.96873707   187.96747676
 H     80  79  69     1.084770455673   132.41475205     1.96525175
 N     79  69  68     1.364066889020   118.86879192     8.34814884
 N     82  79  69     1.296516627013   110.54340985   179.51204888
 N     83  82  79     1.347919296778   106.79644147     0.31299993
 C     84  83  82     1.421414270642   120.17501807   179.09858346
 C     85  84  83     1.395444510394   120.19201749   167.40578844
 C     85  84  83     1.398165154605   119.45912695   346.99279351
 C     86  85  84     1.392027908784   119.39479134   179.15474527
 H     86  85  84     1.091191513698   120.82637686   358.66870627
 C     87  85  84     1.389209904099   119.30894469   180.63096990
 H     87  85  84     1.090503126261   119.81179297     0.04453921
 C     88  86  85     1.401240670755   121.57937743     0.36323502
 H     88  86  85     1.093036218709   118.97538890   180.12639752
 H     90  87  85     1.093413086836   118.97204430   179.63893087
 C     92  88  86     1.493381302244   121.39538557   178.95571893
 H     95  92  88     1.101344252370   111.15933982   257.04710805
 H     95  92  88     1.097155181040   111.95385885    16.84162844
 H     95  92  88     1.098723510930   111.73982365   138.46757382

---------------------------
INTERNAL COORDINATES (A.U.)
---------------------------
 C      0   0   0     0.000000000000     0.00000000     0.00000000
 C      1   0   0     2.660944767527     0.00000000     0.00000000
 C      2   1   0     2.633851426829   121.39509119     0.00000000
 C      3   2   1     2.634671405899   119.21528953   359.17749642
 C      4   3   2     2.634956574481   120.46829974   359.58209261
 C      5   4   3     2.635470174093   119.83360649     0.94993817
 C      2   1   3     5.980531454582   129.78636276   128.47253469
 C      7   2   1     2.659855074942    44.86298418   128.76660077
 C      8   7   2     2.630029986981   121.62759905   152.05943505
 C      9   8   7     2.633126581069   119.49201671   359.02235853
 C     10   9   8     2.636041536965   120.01824958     0.00000000
 C     11  10   9     2.634003019639   120.08325483     0.78112849
 C      1   2   3     5.519443657145   104.80595165   152.63152099
 C     13   1   2     2.644506681868    86.51594362   298.56336903
 C     14  13   1     2.638375395128   120.20051586   178.29100714
 C     15  14  13     2.634744599268   120.30029748     0.04897891
 C     16  15  14     2.639987078556   119.80534359     0.00000000
 C     17  16  15     2.630909242340   120.01396372   359.67476362
 C      1   2   3     5.435733050357   154.72269655   201.19177253
 C     19   1   2     2.649586988019   115.70543998    87.35017359
 C     20  19   1     2.634692282640   120.46067470   135.47426538
 C     21  20  19     2.636232116328   119.92805440     0.68920242
 C     22  21  20     2.638112873405   119.97284067   359.84544428
 C     23  22  21     2.634081709209   120.20801945   359.68985156
 C      7   2   1     5.460733863060   117.50299668   337.20218840
 C     25   7   2     2.657375605146    97.14985657   128.13832469
 C     26  25   7     2.629277493534   120.53396255   152.68182250
 C     27  26  25     2.641179361181   120.06968938     0.94664257
 C     28  27  26     2.633263968747   119.74388276   359.56812803
 C     29  28  27     2.639635253639   120.38302126   359.87597173
 C      7   2   1     5.486280417129    68.39069164   301.16503269
 C     31   7   2     2.646692721950   141.90513505    35.36534344
 C     32  31   7     2.635972916128   120.36375605   219.03517593
 C     33  32  31     2.635169961342   119.90570557     0.19935705
 C     34  33  32     2.639987756412   120.04587376   359.94745973
 C     35  34  33     2.632539985230   120.15681794     0.00000000
 H      3   2   1     2.064355715004   119.97821441   178.90778345
 H      4   3   2     2.064699171497   119.28961450   179.70860270
 H      5   4   3     2.063526805865   120.29961208   180.22819101
 H      6   5   4     2.066160620578   119.52633803   178.33709637
 H      9   8   7     2.063573875892   118.90229769   179.02950228
 H     10   9   8     2.063966527147   119.69374032   180.05502015
 H     11  10   9     2.063645614394   120.20360560   180.29583494
 H     12  11  10     2.066586869086   119.54344778   178.69664909
 H     15  14  13     2.065182026915   119.60217793   179.97173385
 H     16  15  14     2.065189155641   120.12069335   180.29349992
 H     17  16  15     2.065575844496   120.16222845   180.21226401
 H     18  17  16     2.070932554023   119.80351742   180.95767133
 H     21  20  19     2.064542671417   119.89349729   180.16910254
 H     22  21  20     2.064726245035   120.02871815   179.55751989
 H     23  22  21     2.064788156482   120.05584508   179.86040153
 H     24  23  22     2.067624340119   119.79274991   180.50704281
 H     27  26  25     2.065265687424   119.76422986   180.43109142
 H     28  27  26     2.064502036994   120.12203526   179.45023087
 H     29  28  27     2.064933777545   120.10336854   179.99589051
 H     30  29  28     2.066387719205   119.51715146   179.92842781
 H     33  32  31     2.065187578762   119.84707920   179.65956476
 H     34  33  32     2.064863189397   120.00800738   179.68262577
 H     35  34  33     2.064838115403   120.05443085   179.87766279
 H     36  35  34     2.068196755923   119.84465954   179.90530623
 O      2   1   3     2.592254862957   115.98379671   181.01120940
 P     19   1   2     3.449928232580    38.05114789   343.84954019
 P     25   7   2     3.448766146309    37.95264883     1.81185304
 H     20  19   1     2.070003114515   119.47866947   315.43685053
 H     14  13   1     2.066820686049   120.18792648   358.09936064
 H     32  31   7     2.071592865075   119.37287619    38.38236278
 H     26  25   7     2.070845125344   119.65339133   332.42692162
 Cu    62  19   1     4.291664066681   121.96902350   122.20276862
 C     68  62  19     5.586429197473   128.81563123    70.26114424
 C     69  68  62     2.641568623847   161.64016263   244.58250011
 C     70  69  68     2.626732892438   118.92513794     9.01885428
 C     71  70  69     2.635651327793   119.04996246   359.75691582
 C     72  71  70     2.627479775910   118.53574170     0.70590444
 H     70  69  68     2.062499324177   119.92855820   189.87495586
 H     72  71  70     2.061135215174   121.43529616   180.56034964
 H     73  72  71     2.068630112569   120.87366710   180.01502471
 N     73  72  71     2.528777919294   122.91303984   359.78906588
 H     71  70  69     2.063006361099   120.27262626   180.27117180
 C     69  68  62     2.753193099080    74.58434856    74.83861442
 C     79  69  68     2.610918034744   133.96873707   187.96747676
 H     80  79  69     2.049919079392   132.41475205     1.96525175
 N     79  69  68     2.577712848599   118.86879192     8.34814884
 N     82  79  69     2.450061353130   110.54340985   179.51204888
 N     83  82  79     2.547198321538   106.79644147     0.31299993
 C     84  83  82     2.686083694362   120.17501807   179.09858346
 C     85  84  83     2.637007959729   120.19201749   167.40578844
 C     85  84  83     2.642149232195   119.45912695   346.99279351
 C     86  85  84     2.630551518376   119.39479134   179.15474527
 H     86  85  84     2.062053120548   120.82637686   358.66870627
 C     87  85  84     2.625226261278   119.30894469   180.63096990
 H     87  85  84     2.060752256819   119.81179297     0.04453921
 C     88  86  85     2.647961115440   121.57937743     0.36323502
 H     88  86  85     2.065539107816   118.97538890   180.12639752
 H     90  87  85     2.066251285365   118.97204430   179.63893087
 C     92  88  86     2.822081674759   121.39538557   178.95571893
 H     95  92  88     2.081239016148   111.15933982   257.04710805
 H     95  92  88     2.073322818578   111.95385885    16.84162844
 H     95  92  88     2.076286532558   111.73982365   138.46757382

---------------------
BASIS SET INFORMATION
---------------------
There are 6 groups of distinct atoms

 Group   1 Type C   : 7s4p1d contracted to 3s2p1d pattern {511/31/1}
 Group   2 Type H   : 4s1p contracted to 2s1p pattern {31/1}
 Group   3 Type O   : 7s4p1d contracted to 3s2p1d pattern {511/31/1}
 Group   4 Type P   : 10s7p1d contracted to 4s3p1d pattern {5311/511/1}
 Group   5 Type Cu  : 14s9p5d1f contracted to 5s3p2d1f pattern {63311/531/41/1}
 Group   6 Type N   : 7s4p1d contracted to 3s2p1d pattern {511/31/1}

Atom   0C    basis set group =>   1
Atom   1C    basis set group =>   1
Atom   2C    basis set group =>   1
Atom   3C    basis set group =>   1
Atom   4C    basis set group =>   1
Atom   5C    basis set group =>   1
Atom   6C    basis set group =>   1
Atom   7C    basis set group =>   1
Atom   8C    basis set group =>   1
Atom   9C    basis set group =>   1
Atom  10C    basis set group =>   1
Atom  11C    basis set group =>   1
Atom  12C    basis set group =>   1
Atom  13C    basis set group =>   1
Atom  14C    basis set group =>   1
Atom  15C    basis set group =>   1
Atom  16C    basis set group =>   1
Atom  17C    basis set group =>   1
Atom  18C    basis set group =>   1
Atom  19C    basis set group =>   1
Atom  20C    basis set group =>   1
Atom  21C    basis set group =>   1
Atom  22C    basis set group =>   1
Atom  23C    basis set group =>   1
Atom  24C    basis set group =>   1
Atom  25C    basis set group =>   1
Atom  26C    basis set group =>   1
Atom  27C    basis set group =>   1
Atom  28C    basis set group =>   1
Atom  29C    basis set group =>   1
Atom  30C    basis set group =>   1
Atom  31C    basis set group =>   1
Atom  32C    basis set group =>   1
Atom  33C    basis set group =>   1
Atom  34C    basis set group =>   1
Atom  35C    basis set group =>   1
Atom  36H    basis set group =>   2
Atom  37H    basis set group =>   2
Atom  38H    basis set group =>   2
Atom  39H    basis set group =>   2
Atom  40H    basis set group =>   2
Atom  41H    basis set group =>   2
Atom  42H    basis set group =>   2
Atom  43H    basis set group =>   2
Atom  44H    basis set group =>   2
Atom  45H    basis set group =>   2
Atom  46H    basis set group =>   2
Atom  47H    basis set group =>   2
Atom  48H    basis set group =>   2
Atom  49H    basis set group =>   2
Atom  50H    basis set group =>   2
Atom  51H    basis set group =>   2
Atom  52H    basis set group =>   2
Atom  53H    basis set group =>   2
Atom  54H    basis set group =>   2
Atom  55H    basis set group =>   2
Atom  56H    basis set group =>   2
Atom  57H    basis set group =>   2
Atom  58H    basis set group =>   2
Atom  59H    basis set group =>   2
Atom  60O    basis set group =>   3
Atom  61P    basis set group =>   4
Atom  62P    basis set group =>   4
Atom  63H    basis set group =>   2
Atom  64H    basis set group =>   2
Atom  65H    basis set group =>   2
Atom  66H    basis set group =>   2
Atom  67Cu   basis set group =>   5
Atom  68C    basis set group =>   1
Atom  69C    basis set group =>   1
Atom  70C    basis set group =>   1
Atom  71C    basis set group =>   1
Atom  72C    basis set group =>   1
Atom  73H    basis set group =>   2
Atom  74H    basis set group =>   2
Atom  75H    basis set group =>   2
Atom  76N    basis set group =>   6
Atom  77H    basis set group =>   2
Atom  78C    basis set group =>   1
Atom  79C    basis set group =>   1
Atom  80H    basis set group =>   2
Atom  81N    basis set group =>   6
Atom  82N    basis set group =>   6
Atom  83N    basis set group =>   6
Atom  84C    basis set group =>   1
Atom  85C    basis set group =>   1
Atom  86C    basis set group =>   1
Atom  87C    basis set group =>   1
Atom  88H    basis set group =>   2
Atom  89C    basis set group =>   1
Atom  90H    basis set group =>   2
Atom  91C    basis set group =>   1
Atom  92H    basis set group =>   2
Atom  93H    basis set group =>   2
Atom  94C    basis set group =>   1
Atom  95H    basis set group =>   2
Atom  96H    basis set group =>   2
Atom  97H    basis set group =>   2
---------------------------------
AUXILIARY/J BASIS SET INFORMATION
---------------------------------
There are 6 groups of distinct atoms

 Group   1 Type C   : 12s5p4d2f1g contracted to 6s4p3d1f1g pattern {711111/2111/211/2/1}
 Group   2 Type H   : 5s2p1d contracted to 3s1p1d pattern {311/2/1}
 Group   3 Type O   : 12s5p4d2f1g contracted to 6s4p3d1f1g pattern {711111/2111/211/2/1}
 Group   4 Type P   : 14s5p5d2f1g contracted to 8s4p3d1f1g pattern {71111111/2111/311/2/1}
 Group   5 Type Cu  : 19s5p5d3f3g contracted to 8s5p4d3f3g pattern {121111111/11111/2111/111/111}
 Group   6 Type N   : 12s5p4d2f1g contracted to 6s4p3d1f1g pattern {711111/2111/211/2/1}

Atom   0C    basis set group =>   1
Atom   1C    basis set group =>   1
Atom   2C    basis set group =>   1
Atom   3C    basis set group =>   1
Atom   4C    basis set group =>   1
Atom   5C    basis set group =>   1
Atom   6C    basis set group =>   1
Atom   7C    basis set group =>   1
Atom   8C    basis set group =>   1
Atom   9C    basis set group =>   1
Atom  10C    basis set group =>   1
Atom  11C    basis set group =>   1
Atom  12C    basis set group =>   1
Atom  13C    basis set group =>   1
Atom  14C    basis set group =>   1
Atom  15C    basis set group =>   1
Atom  16C    basis set group =>   1
Atom  17C    basis set group =>   1
Atom  18C    basis set group =>   1
Atom  19C    basis set group =>   1
Atom  20C    basis set group =>   1
Atom  21C    basis set group =>   1
Atom  22C    basis set group =>   1
Atom  23C    basis set group =>   1
Atom  24C    basis set group =>   1
Atom  25C    basis set group =>   1
Atom  26C    basis set group =>   1
Atom  27C    basis set group =>   1
Atom  28C    basis set group =>   1
Atom  29C    basis set group =>   1
Atom  30C    basis set group =>   1
Atom  31C    basis set group =>   1
Atom  32C    basis set group =>   1
Atom  33C    basis set group =>   1
Atom  34C    basis set group =>   1
Atom  35C    basis set group =>   1
Atom  36H    basis set group =>   2
Atom  37H    basis set group =>   2
Atom  38H    basis set group =>   2
Atom  39H    basis set group =>   2
Atom  40H    basis set group =>   2
Atom  41H    basis set group =>   2
Atom  42H    basis set group =>   2
Atom  43H    basis set group =>   2
Atom  44H    basis set group =>   2
Atom  45H    basis set group =>   2
Atom  46H    basis set group =>   2
Atom  47H    basis set group =>   2
Atom  48H    basis set group =>   2
Atom  49H    basis set group =>   2
Atom  50H    basis set group =>   2
Atom  51H    basis set group =>   2
Atom  52H    basis set group =>   2
Atom  53H    basis set group =>   2
Atom  54H    basis set group =>   2
Atom  55H    basis set group =>   2
Atom  56H    basis set group =>   2
Atom  57H    basis set group =>   2
Atom  58H    basis set group =>   2
Atom  59H    basis set group =>   2
Atom  60O    basis set group =>   3
Atom  61P    basis set group =>   4
Atom  62P    basis set group =>   4
Atom  63H    basis set group =>   2
Atom  64H    basis set group =>   2
Atom  65H    basis set group =>   2
Atom  66H    basis set group =>   2
Atom  67Cu   basis set group =>   5
Atom  68C    basis set group =>   1
Atom  69C    basis set group =>   1
Atom  70C    basis set group =>   1
Atom  71C    basis set group =>   1
Atom  72C    basis set group =>   1
Atom  73H    basis set group =>   2
Atom  74H    basis set group =>   2
Atom  75H    basis set group =>   2
Atom  76N    basis set group =>   6
Atom  77H    basis set group =>   2
Atom  78C    basis set group =>   1
Atom  79C    basis set group =>   1
Atom  80H    basis set group =>   2
Atom  81N    basis set group =>   6
Atom  82N    basis set group =>   6
Atom  83N    basis set group =>   6
Atom  84C    basis set group =>   1
Atom  85C    basis set group =>   1
Atom  86C    basis set group =>   1
Atom  87C    basis set group =>   1
Atom  88H    basis set group =>   2
Atom  89C    basis set group =>   1
Atom  90H    basis set group =>   2
Atom  91C    basis set group =>   1
Atom  92H    basis set group =>   2
Atom  93H    basis set group =>   2
Atom  94C    basis set group =>   1
Atom  95H    basis set group =>   2
Atom  96H    basis set group =>   2
Atom  97H    basis set group =>   2
---------------------------------
AUXILIARY/C BASIS SET INFORMATION
---------------------------------
There are 6 groups of distinct atoms

 Group   1 Type C   : 8s6p5d3f contracted to 6s5p4d1f pattern {311111/21111/2111/3}
 Group   2 Type H   : 4s3p2d contracted to 3s2p1d pattern {211/21/2}
 Group   3 Type O   : 8s6p5d3f contracted to 6s5p4d1f pattern {311111/21111/2111/3}
 Group   4 Type P   : 10s7p7d3f contracted to 8s5p5d2f pattern {31111111/31111/31111/12}
 Group   5 Type Cu  : 9s9p6d4f3g2h contracted to 9s9p6d4f3g2h pattern {111111111/111111111/111111/1111/111/11}
 Group   6 Type N   : 8s6p5d3f contracted to 6s5p4d1f pattern {311111/21111/2111/3}

Atom   0C    basis set group =>   1
Atom   1C    basis set group =>   1
Atom   2C    basis set group =>   1
Atom   3C    basis set group =>   1
Atom   4C    basis set group =>   1
Atom   5C    basis set group =>   1
Atom   6C    basis set group =>   1
Atom   7C    basis set group =>   1
Atom   8C    basis set group =>   1
Atom   9C    basis set group =>   1
Atom  10C    basis set group =>   1
Atom  11C    basis set group =>   1
Atom  12C    basis set group =>   1
Atom  13C    basis set group =>   1
Atom  14C    basis set group =>   1
Atom  15C    basis set group =>   1
Atom  16C    basis set group =>   1
Atom  17C    basis set group =>   1
Atom  18C    basis set group =>   1
Atom  19C    basis set group =>   1
Atom  20C    basis set group =>   1
Atom  21C    basis set group =>   1
Atom  22C    basis set group =>   1
Atom  23C    basis set group =>   1
Atom  24C    basis set group =>   1
Atom  25C    basis set group =>   1
Atom  26C    basis set group =>   1
Atom  27C    basis set group =>   1
Atom  28C    basis set group =>   1
Atom  29C    basis set group =>   1
Atom  30C    basis set group =>   1
Atom  31C    basis set group =>   1
Atom  32C    basis set group =>   1
Atom  33C    basis set group =>   1
Atom  34C    basis set group =>   1
Atom  35C    basis set group =>   1
Atom  36H    basis set group =>   2
Atom  37H    basis set group =>   2
Atom  38H    basis set group =>   2
Atom  39H    basis set group =>   2
Atom  40H    basis set group =>   2
Atom  41H    basis set group =>   2
Atom  42H    basis set group =>   2
Atom  43H    basis set group =>   2
Atom  44H    basis set group =>   2
Atom  45H    basis set group =>   2
Atom  46H    basis set group =>   2
Atom  47H    basis set group =>   2
Atom  48H    basis set group =>   2
Atom  49H    basis set group =>   2
Atom  50H    basis set group =>   2
Atom  51H    basis set group =>   2
Atom  52H    basis set group =>   2
Atom  53H    basis set group =>   2
Atom  54H    basis set group =>   2
Atom  55H    basis set group =>   2
Atom  56H    basis set group =>   2
Atom  57H    basis set group =>   2
Atom  58H    basis set group =>   2
Atom  59H    basis set group =>   2
Atom  60O    basis set group =>   3
Atom  61P    basis set group =>   4
Atom  62P    basis set group =>   4
Atom  63H    basis set group =>   2
Atom  64H    basis set group =>   2
Atom  65H    basis set group =>   2
Atom  66H    basis set group =>   2
Atom  67Cu   basis set group =>   5
Atom  68C    basis set group =>   1
Atom  69C    basis set group =>   1
Atom  70C    basis set group =>   1
Atom  71C    basis set group =>   1
Atom  72C    basis set group =>   1
Atom  73H    basis set group =>   2
Atom  74H    basis set group =>   2
Atom  75H    basis set group =>   2
Atom  76N    basis set group =>   6
Atom  77H    basis set group =>   2
Atom  78C    basis set group =>   1
Atom  79C    basis set group =>   1
Atom  80H    basis set group =>   2
Atom  81N    basis set group =>   6
Atom  82N    basis set group =>   6
Atom  83N    basis set group =>   6
Atom  84C    basis set group =>   1
Atom  85C    basis set group =>   1
Atom  86C    basis set group =>   1
Atom  87C    basis set group =>   1
Atom  88H    basis set group =>   2
Atom  89C    basis set group =>   1
Atom  90H    basis set group =>   2
Atom  91C    basis set group =>   1
Atom  92H    basis set group =>   2
Atom  93H    basis set group =>   2
Atom  94C    basis set group =>   1
Atom  95H    basis set group =>   2
Atom  96H    basis set group =>   2
Atom  97H    basis set group =>   2


           ************************************************************
           *        Program running with 8 parallel MPI-processes     *
           *              working on a common directory               *
           ************************************************************
------------------------------------------------------------------------------
                           ORCA GTO INTEGRAL CALCULATION
                           -- RI-GTO INTEGRALS CHOSEN --
------------------------------------------------------------------------------
------------------------------------------------------------------------------
                   ___                                                        
                  /   \      - P O W E R E D   B Y -                         
                 /     \                                                     
                 |  |  |   _    _      __       _____    __    __             
                 |  |  |  | |  | |    /  \     |  _  \  |  |  /  |          
                  \  \/   | |  | |   /    \    | | | |  |  | /  /          
                 / \  \   | |__| |  /  /\  \   | |_| |  |  |/  /          
                |  |  |   |  __  | /  /__\  \  |    /   |      \           
                |  |  |   | |  | | |   __   |  |    \   |  |\   \          
                \     /   | |  | | |  |  |  |  | |\  \  |  | \   \       
                 \___/    |_|  |_| |__|  |__|  |_| \__\ |__|  \__/        
                                                                              
                      - O R C A' S   B I G   F R I E N D -                    
                                      &                                       
                       - I N T E G R A L  F E E D E R -                       
                                                                              
 v1 FN, 2020, v2 2021                                                         
------------------------------------------------------------------------------


Reading SHARK input file Cu50_DPEPhos-pytri.SHARKINP.tmp ... ok
----------------------
SHARK INTEGRAL PACKAGE
----------------------

Number of atoms                             ...     98
Number of basis functions                   ...   1037
Number of shells                            ...    477
Maximum angular momentum                    ...      3
Integral batch strategy                     ... SHARK/LIBINT Hybrid
RI-J (if used) integral strategy            ... SPLIT-RIJ (Revised 2003 algorithm where possible)
Printlevel                                  ...      1
Contraction scheme used                     ... SEGMENTED contraction
Coulomb Range Separation                    ... NOT USED
Exchange Range Separation                   ... NOT USED
Finite Nucleus Model                        ... NOT USED
Auxiliary Coulomb fitting basis             ... AVAILABLE
   # of basis functions in Aux-J            ...   3328
   # of shells in Aux-J                     ...   1082
   Maximum angular momentum in Aux-J        ...      4
Auxiliary J/K fitting basis                 ... NOT available
Auxiliary Correlation fitting basis         ... AVAILABLE
   # of basis functions in Aux-C            ...   3467
   # of shells in Aux-C                     ...   1193
   Maximum angular momentum in Aux-C        ...      5
Auxiliary 'external' fitting basis          ... NOT available
Integral threshold                          ...     2.500000e-11
Primitive cut-off                           ...     2.500000e-12
Primitive pair pre-selection threshold      ...     2.500000e-12

Calculating pre-screening integrals         ... done (  0.5 sec) Dimension = 477
Organizing shell pair data                  ... done (  1.7 sec)
Shell pair information
Total number of shell pairs                 ...    114003
Shell pairs after pre-screening             ...     60823
Total number of primitive shell pairs       ...    429196
Primitive shell pairs kept                  ...    128158
          la=0 lb=0:  18465 shell pairs
          la=1 lb=0:  22934 shell pairs
          la=1 lb=1:   7237 shell pairs
          la=2 lb=0:   6988 shell pairs
          la=2 lb=1:   4373 shell pairs
          la=2 lb=2:    576 shell pairs
          la=3 lb=0:    137 shell pairs
          la=3 lb=1:     89 shell pairs
          la=3 lb=2:     23 shell pairs
          la=3 lb=3:      1 shell pairs

Calculating one electron integrals          ... done (  0.8 sec)
Calculating RI/J V-Matrix + Cholesky decomp.... done (  1.9 sec)
Calculating RI/C V-Matrix + Cholesky decomp.... done (  2.2 sec)
Calculating Nuclear repulsion               ... done (  0.0 sec) ENN=   9999.711642197473 Eh

SHARK setup successfully completed in   9.4 seconds

Maximum memory used throughout the entire GTOINT-calculation: 111.7 MB


           ************************************************************
           *        Program running with 8 parallel MPI-processes     *
           *              working on a common directory               *
           ************************************************************
-------------------------------------------------------------------------------
                                 ORCA SCF
-------------------------------------------------------------------------------

------------
SCF SETTINGS
------------
Hamiltonian:
 Density Functional     Method          .... DFT(GTOs)
 Exchange Functional    Exchange        .... B88
   X-Alpha parameter    XAlpha          ....  0.666667
   Becke's b parameter  XBeta           ....  0.004200
 Correlation Functional Correlation     .... LYP
 LDA part of GGA corr.  LDAOpt          .... VWN-3
 Gradients option       PostSCFGGA      .... off
 Hybrid DFT is turned on
   Fraction HF Exchange ScalHFX         ....  0.650000
   Scaling of DF-GGA-X  ScalDFX         ....  0.350000
   Scaling of DF-GGA-C  ScalDFC         ....  0.640000
   Scaling of DF-LDA-C  ScalLDAC        ....  0.640000
   Perturbative correction              ....  0.360000
   Density functional embedding theory  .... OFF
 RI-approximation to the Coulomb term is turned on
   Number of AuxJ basis functions       .... 3328
   RIJ-COSX (HFX calculated with COS-X)).... on


General Settings:
 Integral files         IntName         .... Cu50_DPEPhos-pytri
 Hartree-Fock type      HFTyp           .... RHF
 Total Charge           Charge          ....    1
 Multiplicity           Mult            ....    1
 Number of Electrons    NEL             ....  434
 Basis Dimension        Dim             .... 1037
 Nuclear Repulsion      ENuc            ....   9999.7116421975 Eh

Convergence Acceleration:
 DIIS                   CNVDIIS         .... on
   Start iteration      DIISMaxIt       ....    12
   Startup error        DIISStart       ....  0.200000
   # of expansion vecs  DIISMaxEq       ....     5
   Bias factor          DIISBfac        ....   1.050
   Max. coefficient     DIISMaxC        ....  10.000
 Trust-Rad. Augm. Hess. CNVTRAH         .... auto
   Auto Start mean grad. ratio tolernc. ....  1.125000
   Auto Start start iteration           ....    20
   Auto Start num. interpolation iter.  ....    10
   Max. Number of Micro iterations      ....    16
   Max. Number of Macro iterations      .... Maxiter - #DIIS iter
   Number of Davidson start vectors     ....     2
   Converg. threshold I  (grad. norm)   ....   1.000e-05
   Converg. threshold II (energy diff.) ....   1.000e-08
   Grad. Scal. Fac. for Micro threshold ....   0.100
   Minimum threshold for Micro iter.    ....   0.010
   NR start threshold (gradient norm)   ....   0.001
   Initial trust radius                 ....   0.400
   Minimum AH scaling param. (alpha)    ....   1.000
   Maximum AH scaling param. (alpha)    .... 1000.000
   Orbital update algorithm             .... Taylor
   White noise on init. David. guess    .... on
   Maximum white noise                  ....   0.010
   Quad. conv. algorithm                .... NR
 SOSCF                  CNVSOSCF        .... off
 Level Shifting         CNVShift        .... on
   Level shift para.    LevelShift      ....    0.2500
   Turn off err/grad.   ShiftErr        ....    0.0010
 Zerner damping         CNVZerner       .... off
 Static damping         CNVDamp         .... on
   Fraction old density DampFac         ....    0.7000
   Max. Damping (<1)    DampMax         ....    0.9800
   Min. Damping (>=0)   DampMin         ....    0.0000
   Turn off err/grad.   DampErr         ....    0.1000
 Fernandez-Rico         CNVRico         .... off

SCF Procedure:
 Maximum # iterations   MaxIter         ....   125
 SCF integral mode      SCFMode         .... Direct
   Integral package                     .... SHARK and LIBINT hybrid scheme
 Reset frequency        DirectResetFreq ....    20
 Integral Threshold     Thresh          ....  2.500e-11 Eh
 Primitive CutOff       TCut            ....  2.500e-12 Eh

Convergence Tolerance:
 Convergence Check Mode ConvCheckMode   .... Total+1el-Energy
 Convergence forced     ConvForced      .... 1
 Energy Change          TolE            ....  1.000e-08 Eh
 1-El. energy change                    ....  1.000e-05 Eh
 DIIS Error             TolErr          ....  5.000e-07


Diagonalization of the overlap matrix:
Smallest eigenvalue                        ... 2.144e-04
Time for diagonalization                   ...    0.638 sec
Threshold for overlap eigenvalues          ... 1.000e-08
Number of eigenvalues below threshold      ... 0
Time for construction of square roots      ...    0.339 sec
Total time needed                          ...    0.992 sec

Time for model grid setup =   13.924 sec

------------------------------
INITIAL GUESS: MODEL POTENTIAL
------------------------------
Loading Hartree-Fock densities                     ... done
Calculating cut-offs                               ... done
Initializing the effective Hamiltonian             ... done
Setting up the integral package (SHARK)            ... done
Starting the Coulomb interaction                   ... done (  10.6 sec)
Reading the grid                                   ... done
Mapping shells                                     ... done
Starting the XC term evaluation                    ... done (   2.8 sec)
  promolecular density results
     # of electrons  =    434.993747023
     EX              =   -414.703877243
     EC              =     -1.878181535
     EX+EC           =   -416.582058778
Transforming the Hamiltonian                       ... done (   0.3 sec)
Diagonalizing the Hamiltonian                      ... done (   0.6 sec)
Back transforming the eigenvectors                 ... done (   0.1 sec)
Now organizing SCF variables                       ... done
                      ------------------
                      INITIAL GUESS DONE (  28.6 sec)
                      ------------------
-------------------
DFT GRID GENERATION
-------------------

General Integration Accuracy     IntAcc      ... 4.388
Radial Grid Type                 RadialGrid  ... OptM3 with GC (2021)
Angular Grid (max. ang.)         AngularGrid ... 4 (Lebedev-302)
Angular grid pruning method      GridPruning ... 4 (adaptive)
Weight generation scheme         WeightScheme... Becke
Basis function cutoff            BFCut       ... 1.0000e-11
Integration weight cutoff        WCut        ... 1.0000e-14
Angular grids for H and He will be reduced by one unit
Partially contracted basis set               ... off
Rotationally invariant grid construction     ... off

Total number of grid points                  ...   476196
Total number of batches                      ...     7491
Average number of points per batch           ...       63
Average number of grid points per atom       ...     4859
Time for grid setup =   30.037 sec

--------------------
COSX GRID GENERATION
--------------------

GRIDX 1
-------
General Integration Accuracy     IntAcc      ... 3.816
Radial Grid Type                 RadialGrid  ... OptM3 with GC (2021)
Angular Grid (max. ang.)         AngularGrid ... 1 (Lebedev-50)
Angular grid pruning method      GridPruning ... 4 (adaptive)
Weight generation scheme         WeightScheme... Becke
Basis function cutoff            BFCut       ... 1.0000e-11
Integration weight cutoff        WCut        ... 1.0000e-14
Angular grids for H and He will be reduced by one unit
Partially contracted basis set               ... on
Rotationally invariant grid construction     ... off

Total number of grid points                  ...    59994
Total number of batches                      ...      975
Average number of points per batch           ...       61
Average number of grid points per atom       ...      612
UseSFitting                                  ... on

GRIDX 2
-------
General Integration Accuracy     IntAcc      ... 4.020
Radial Grid Type                 RadialGrid  ... OptM3 with GC (2021)
Angular Grid (max. ang.)         AngularGrid ... 2 (Lebedev-110)
Angular grid pruning method      GridPruning ... 4 (adaptive)
Weight generation scheme         WeightScheme... Becke
Basis function cutoff            BFCut       ... 1.0000e-11
Integration weight cutoff        WCut        ... 1.0000e-14
Angular grids for H and He will be reduced by one unit
Partially contracted basis set               ... on
Rotationally invariant grid construction     ... off

Total number of grid points                  ...   128809
Total number of batches                      ...     2061
Average number of points per batch           ...       62
Average number of grid points per atom       ...     1314
UseSFitting                                  ... on

GRIDX 3
-------
General Integration Accuracy     IntAcc      ... 4.338
Radial Grid Type                 RadialGrid  ... OptM3 with GC (2021)
Angular Grid (max. ang.)         AngularGrid ... 3 (Lebedev-194)
Angular grid pruning method      GridPruning ... 4 (adaptive)
Weight generation scheme         WeightScheme... Becke
Basis function cutoff            BFCut       ... 1.0000e-11
Integration weight cutoff        WCut        ... 1.0000e-14
Angular grids for H and He will be reduced by one unit
Partially contracted basis set               ... on
Rotationally invariant grid construction     ... off

Total number of grid points                  ...   280556
Total number of batches                      ...     4431
Average number of points per batch           ...       63
Average number of grid points per atom       ...     2863
UseSFitting                                  ... on

Time for X-Grid setup             =   27.557 sec


--------------------
CPCM SOLVATION MODEL
--------------------
CPCM parameters:
  Epsilon                                         ...       8.9300
  Refrac                                          ...       1.4242
  Rsolv                                           ...       1.3000
  Surface type                                    ... GAUSSIAN VDW
  Epsilon function type                           ...         CPCM
Solvent:                                     ... CH2CL2
SMD-CDS solvent descriptors:
  Soln                                       ...    1.4242
  Soln25                                     ...    1.4212
  Sola                                       ...    0.1000
  Solb                                       ...    0.0500
  Solg                                       ...   39.1500
  Solc                                       ...    0.0000
  Solh                                       ...    0.6670
Radii:
 Radius for C  used is    3.4960 Bohr (=   1.8500 Ang.)
 Radius for H  used is    2.2677 Bohr (=   1.2000 Ang.)
 Radius for O  used is    3.9949 Bohr (=   2.1140 Ang.)
 Radius for P  used is    4.0062 Bohr (=   2.1200 Ang.)
 Radius for Cu used is    3.5149 Bohr (=   1.8600 Ang.)
 Radius for N  used is    3.5716 Bohr (=   1.8900 Ang.)
Calculating surface                               ...        done! (  0.1s)
GEPOL surface points                              ...         5597
GEPOL Volume                                      ...    5393.1949
GEPOL Surface-area                                ...    2759.8302
Calculating surface distance matrix               ...        done! (  0.8s)
Performing Cholesky decomposition & store         ...        done! (  3.1s)
Overall time for CPCM initialization              ...                 3.9s
--------------
SCF ITERATIONS
--------------
ITER       Energy         Delta-E        Max-DP      RMS-DP      [F,P]     Damp
               ***  Starting incremental Fock matrix formation  ***
  0  -4536.4997015775   0.000000000000 0.13472995  0.00123932  0.1633664 0.7000
  1  -4536.9422285177  -0.442526940136 0.12384638  0.00096116  0.1015297 0.7000
                               ***Turning on DIIS***
  2  -4537.1941825879  -0.251954070271 0.33451615  0.00222196  0.0551959 0.0000
  3  -4537.6479573423  -0.453774754405 0.04537950  0.00034466  0.0339256 0.0000
  4  -4537.6923631219  -0.044405779535 0.01639521  0.00011761  0.0073146 0.0000
  5  -4537.6940705789  -0.001707457051 0.01325636  0.00005682  0.0106932 0.0000
  6  -4537.6944662167  -0.000395637779 0.00385978  0.00002732  0.0071629 0.0000
  7  -4537.6945720000  -0.000105783327 0.00252463  0.00001150  0.0031507 0.0000
  8  -4537.6945991631  -0.000027163034 0.00111300  0.00000887  0.0004540 0.0000
               *** Restarting incremental Fock matrix formation ***
                                   *** Resetting DIIS ***
  9  -4537.6944059199   0.000193243191 0.00165928  0.00002143  0.0004712 0.0000
 10  -4537.6944096601  -0.000003740196 0.00041825  0.00000333  0.0006607 0.0000
 11  -4537.6944105090  -0.000000848872 0.00024610  0.00000211  0.0004597 0.0000
 12  -4537.6944108321  -0.000000323189 0.00010392  0.00000067  0.0002026 0.0000
 13  -4537.6944108770  -0.000000044892 0.00002977  0.00000027  0.0000619 0.0000
 14  -4537.6944109035  -0.000000026446 0.00001440  0.00000010  0.0000139 0.0000
 15  -4537.6944109276  -0.000000024130 0.00000481  0.00000006  0.0000037 0.0000
 16  -4537.6944110951  -0.000000167503 0.00000228  0.00000003  0.0000012 0.0000
                            ***DIIS convergence achieved***

               *****************************************************
               *                     SUCCESS                       *
               *           SCF CONVERGED AFTER  17 CYCLES          *
               *****************************************************

Old exchange energy                            =   -272.076331870 Eh
New exchange energy                            =   -272.076435130 Eh
Exchange energy change after final integration =     -0.000103260 Eh
Total energy after final integration           =  -4537.694514423 Eh
Final COS-X integration done in                =   369.097 sec

SMD CDS free energy correction energy :               -17.62942     Kcal/mol
Total Energy after SMD CDS correction =             -4537.722608686 Eh

----------------
TOTAL SCF ENERGY
----------------

Total Energy       :        -4537.72260869 Eh         -123477.70967 eV

Components:
Nuclear Repulsion  :         9999.71164220 Eh          272105.98739 eV
Electronic Energy  :       -14537.43425088 Eh         -395583.69705 eV
One Electron Energy:       -26137.75230261 Eh         -711244.39912 eV
Two Electron Energy:        11600.31805173 Eh          315660.70207 eV
Max COSX asymmetry :            0.00002027 Eh               0.00055 eV
CPCM Dielectric    :           -0.07987180 Eh              -2.17342 eV
SMD CDS (Gcds)     :           -0.02809426 Eh              -0.76448 eV

Virial components:
Potential Energy   :        -9053.23552438 Eh         -246351.06286 eV
Kinetic Energy     :         4515.51291569 Eh          122873.35320 eV
Virial Ratio       :            2.00491853


DFT components:
N(Alpha)           :      216.999896681036 electrons
N(Beta)            :      216.999896681036 electrons
N(Total)           :      433.999793362072 electrons
E(X)               :     -146.767848696734 Eh       
E(C)               :       -9.840779200105 Eh       
E(XC)              :     -156.608627896840 Eh       
DFET-embed. en.    :        0.000000000000 Eh       
CPCM Solvation Model Properties:
Surface-charge          :           -1.07687794
Charge-correction       :            0.00548695 Eh               0.14931 eV
Free-energy (cav+disp)  :           -0.02809426 Eh              -0.76448 eV

---------------
SCF CONVERGENCE
---------------

  Last Energy change         ...   -6.8017e-08  Tolerance :   1.0000e-08
  Last MAX-Density change    ...    0.0000e+00  Tolerance :   1.0000e-07
  Last RMS-Density change    ...    0.0000e+00  Tolerance :   5.0000e-09
  Last DIIS Error            ...    4.5022e-07  Tolerance :   5.0000e-07

             **** THE GBW FILE WAS UPDATED (Cu50_DPEPhos-pytri.gbw) ****
             **** DENSITY Cu50_DPEPhos-pytri.scfp WAS UPDATED ****
             **** ENERGY FILE WAS UPDATED (Cu50_DPEPhos-pytri.en.tmp) ****
             **** THE GBW FILE WAS UPDATED (Cu50_DPEPhos-pytri.gbw) ****
             **** DENSITY Cu50_DPEPhos-pytri.scfp WAS UPDATED ****
----------------
ORBITAL ENERGIES
----------------

  NO   OCC          E(Eh)            E(eV) 
   0   2.0000    -326.289290     -8878.7830 
   1   2.0000     -78.716180     -2141.9761 
   2   2.0000     -78.715868     -2141.9677 
   3   2.0000     -39.953462     -1087.1890 
   4   2.0000     -34.941170      -950.7976 
   5   2.0000     -34.940893      -950.7900 
   6   2.0000     -34.940641      -950.7832 
   7   2.0000     -19.999951      -544.2263 
   8   2.0000     -15.162526      -412.5933 
   9   2.0000     -15.126636      -411.6167 
  10   2.0000     -15.099631      -410.8819 
  11   2.0000     -15.073371      -410.1673 
  12   2.0000     -10.872894      -295.8665 
  13   2.0000     -10.871003      -295.8150 
  14   2.0000     -10.865268      -295.6590 
  15   2.0000     -10.861823      -295.5652 
  16   2.0000     -10.855250      -295.3864 
  17   2.0000     -10.849196      -295.2216 
  18   2.0000     -10.844139      -295.0840 
  19   2.0000     -10.826028      -294.5912 
  20   2.0000     -10.815872      -294.3148 
  21   2.0000     -10.811797      -294.2040 
  22   2.0000     -10.810589      -294.1711 
  23   2.0000     -10.809873      -294.1516 
  24   2.0000     -10.809420      -294.1393 
  25   2.0000     -10.807688      -294.0921 
  26   2.0000     -10.807555      -294.0885 
  27   2.0000     -10.807157      -294.0777 
  28   2.0000     -10.807035      -294.0744 
  29   2.0000     -10.806719      -294.0658 
  30   2.0000     -10.806137      -294.0499 
  31   2.0000     -10.805925      -294.0442 
  32   2.0000     -10.805876      -294.0428 
  33   2.0000     -10.805282      -294.0267 
  34   2.0000     -10.805261      -294.0261 
  35   2.0000     -10.804668      -294.0100 
  36   2.0000     -10.804437      -294.0037 
  37   2.0000     -10.804117      -293.9950 
  38   2.0000     -10.804080      -293.9940 
  39   2.0000     -10.803666      -293.9827 
  40   2.0000     -10.803202      -293.9701 
  41   2.0000     -10.802937      -293.9629 
  42   2.0000     -10.802135      -293.9410 
  43   2.0000     -10.801793      -293.9317 
  44   2.0000     -10.801675      -293.9285 
  45   2.0000     -10.801388      -293.9207 
  46   2.0000     -10.800731      -293.9028 
  47   2.0000     -10.800328      -293.8919 
  48   2.0000     -10.800042      -293.8841 
  49   2.0000     -10.799919      -293.8807 
  50   2.0000     -10.799879      -293.8796 
  51   2.0000     -10.799260      -293.8628 
  52   2.0000     -10.799057      -293.8573 
  53   2.0000     -10.798798      -293.8502 
  54   2.0000     -10.798708      -293.8478 
  55   2.0000     -10.798405      -293.8395 
  56   2.0000     -10.798301      -293.8367 
  57   2.0000     -10.798296      -293.8366 
  58   2.0000     -10.797363      -293.8112 
  59   2.0000     -10.796936      -293.7996 
  60   2.0000     -10.795119      -293.7501 
  61   2.0000     -10.783031      -293.4212 
  62   2.0000      -7.114065      -193.5836 
  63   2.0000      -7.113518      -193.5687 
  64   2.0000      -5.129405      -139.5782 
  65   2.0000      -5.129241      -139.5737 
  66   2.0000      -5.128887      -139.5641 
  67   2.0000      -5.128734      -139.5600 
  68   2.0000      -5.128272      -139.5474 
  69   2.0000      -5.127757      -139.5334 
  70   2.0000      -4.689753      -127.6147 
  71   2.0000      -3.083443       -83.9048 
  72   2.0000      -3.081292       -83.8462 
  73   2.0000      -3.078921       -83.7817 
  74   2.0000      -1.325008       -36.0553 
  75   2.0000      -1.290012       -35.1030 
  76   2.0000      -1.154497       -31.4155 
  77   2.0000      -1.124822       -30.6080 
  78   2.0000      -1.045646       -28.4535 
  79   2.0000      -1.037012       -28.2185 
  80   2.0000      -1.034580       -28.1524 
  81   2.0000      -1.033257       -28.1164 
  82   2.0000      -1.028403       -27.9843 
  83   2.0000      -1.027512       -27.9600 
  84   2.0000      -1.024635       -27.8817 
  85   2.0000      -1.008102       -27.4318 
  86   2.0000      -0.980754       -26.6877 
  87   2.0000      -0.945832       -25.7374 
  88   2.0000      -0.940973       -25.6052 
  89   2.0000      -0.940041       -25.5798 
  90   2.0000      -0.929933       -25.3048 
  91   2.0000      -0.925306       -25.1789 
  92   2.0000      -0.910470       -24.7751 
  93   2.0000      -0.908977       -24.7345 
  94   2.0000      -0.907174       -24.6855 
[...]
   215a -> 227a  :     0.015663 
   216a -> 223a  :     0.013117 
   216a -> 225a  :     0.100505 
   216a -> 228a  :     0.030009 
   216a -> 229a  :     0.011429 

STATE 33:  E=   0.198443 au      5.400 eV    43553.2 cm**-1 <S**2> =   0.000000
   196a -> 218a  :     0.016690 
   203a -> 218a  :     0.021488 
   205a -> 218a  :     0.026799 
   206a -> 218a  :     0.012582 
   209a -> 217a  :     0.022351 
   210a -> 217a  :     0.068784 
   210a -> 218a  :     0.026533 
   210a -> 222a  :     0.013625 
   212a -> 217a  :     0.040953 
   212a -> 218a  :     0.010219 
   212a -> 222a  :     0.011855 
   214a -> 217a  :     0.057318 
   214a -> 219a  :     0.013204 
   214a -> 220a  :     0.017103 
   215a -> 217a  :     0.054845 
   215a -> 218a  :     0.056810 
   215a -> 227a  :     0.011598 
   216a -> 225a  :     0.098370 

STATE 34:  E=   0.180626 au      4.915 eV    39642.9 cm**-1 <S**2> =   0.000000
   199a -> 222a  :     0.011846 
   202a -> 217a  :     0.033162 
   202a -> 218a  :     0.026403 
   202a -> 222a  :     0.019452 
   202a -> 223a  :     0.020244 
   208a -> 225a  :     0.012544 
   210a -> 217a  :     0.010747 
   213a -> 218a  :     0.017733 
   213a -> 219a  :     0.011418 
   213a -> 220a  :     0.040054 
   214a -> 218a  :     0.028088 
   214a -> 220a  :     0.028052 
   214a -> 221a  :     0.019622 
   215a -> 217a  :     0.017025 
   216a -> 223a  :     0.010902 
   216a -> 226a  :     0.201493 
   216a -> 227a  :     0.019042 
   216a -> 228a  :     0.016226 

STATE 35:  E=   0.170425 au      4.638 eV    37404.0 cm**-1 <S**2> =   0.000000
   185a -> 222a  :     0.016164 
   185a -> 223a  :     0.015684 
   199a -> 222a  :     0.025434 
   199a -> 223a  :     0.030179 
   200a -> 217a  :     0.018842 
   200a -> 222a  :     0.022470 
   202a -> 217a  :     0.050266 
   202a -> 218a  :     0.022700 
   202a -> 221a  :     0.015027 
   202a -> 222a  :     0.059586 
   202a -> 223a  :     0.047212 
   205a -> 222a  :     0.011987 
   212a -> 219a  :     0.014572 
   213a -> 219a  :     0.043568 
   213a -> 220a  :     0.048348 
   213a -> 232a  :     0.011455 
   214a -> 220a  :     0.011343 
   216a -> 222a  :     0.027491 
   216a -> 223a  :     0.014580 
   216a -> 226a  :     0.083496 

STATE 36:  E=   0.196782 au      5.355 eV    43188.6 cm**-1 <S**2> =   0.000000
   202a -> 222a  :     0.024809 
   203a -> 227a  :     0.018171 
   205a -> 218a  :     0.010090 
   205a -> 227a  :     0.022275 
   206a -> 227a  :     0.013305 
   209a -> 222a  :     0.011147 
   211a -> 219a  :     0.020213 
   212a -> 218a  :     0.028910 
   212a -> 219a  :     0.019960 
   213a -> 219a  :     0.039162 
   213a -> 220a  :     0.077536 
   214a -> 218a  :     0.060033 
   214a -> 225a  :     0.015243 
   214a -> 226a  :     0.014196 
   216a -> 225a  :     0.043504 
   216a -> 226a  :     0.029049 
   216a -> 229a  :     0.088601 
   216a -> 232a  :     0.018399 

STATE 37:  E=   0.201655 au      5.487 eV    44258.1 cm**-1 <S**2> =   0.000000
   203a -> 227a  :     0.043431 
   205a -> 218a  :     0.018795 
   205a -> 227a  :     0.052816 
   206a -> 218a  :     0.013708 
   206a -> 227a  :     0.019750 
   208a -> 218a  :     0.016962 
   212a -> 218a  :     0.015066 
   213a -> 218a  :     0.030823 
   213a -> 220a  :     0.025955 
   213a -> 221a  :     0.020818 
   214a -> 218a  :     0.022663 
   214a -> 219a  :     0.046091 
   214a -> 220a  :     0.028787 
   214a -> 221a  :     0.017552 
   214a -> 226a  :     0.021897 
   214a -> 233a  :     0.010281 
   215a -> 219a  :     0.010881 
   215a -> 220a  :     0.018778 
   215a -> 226a  :     0.015665 
   215a -> 227a  :     0.015676 
   215a -> 233a  :     0.019108 
   216a -> 221a  :     0.018646 
   216a -> 225a  :     0.018898 
   216a -> 226a  :     0.014100 
   216a -> 227a  :     0.020205 
   216a -> 228a  :     0.020637 
   216a -> 229a  :     0.015375 

STATE 38:  E=   0.203291 au      5.532 eV    44617.3 cm**-1 <S**2> =   0.000000
   203a -> 227a  :     0.057443 
   205a -> 227a  :     0.057675 
   206a -> 227a  :     0.026083 
   208a -> 227a  :     0.012440 
   211a -> 219a  :     0.013445 
   214a -> 218a  :     0.022348 
   214a -> 220a  :     0.033332 
   214a -> 221a  :     0.035864 
   215a -> 217a  :     0.019303 
   215a -> 233a  :     0.026432 
   216a -> 220a  :     0.014609 
   216a -> 226a  :     0.010909 
   216a -> 228a  :     0.134069 
   216a -> 229a  :     0.045637 

STATE 39:  E=   0.200170 au      5.447 eV    43932.2 cm**-1 <S**2> =   0.000000
   202a -> 222a  :     0.017597 
   202a -> 223a  :     0.012481 
   203a -> 218a  :     0.011968 
   203a -> 227a  :     0.024560 
   205a -> 227a  :     0.025455 
   206a -> 220a  :     0.012052 
   207a -> 220a  :     0.018360 
   210a -> 218a  :     0.018872 
   210a -> 220a  :     0.019930 
   211a -> 219a  :     0.026783 
   212a -> 220a  :     0.023504 
   213a -> 219a  :     0.035867 
   213a -> 228a  :     0.011897 
   213a -> 229a  :     0.021181 
   214a -> 218a  :     0.051684 
   214a -> 219a  :     0.029880 
   214a -> 220a  :     0.011944 
   214a -> 231a  :     0.010961 
   215a -> 217a  :     0.010011 
   215a -> 218a  :     0.015466 
   215a -> 219a  :     0.012712 
   215a -> 233a  :     0.010936 
   216a -> 220a  :     0.011936 
   216a -> 229a  :     0.100907 

STATE 40:  E=   0.193862 au      5.275 eV    42547.7 cm**-1 <S**2> =   0.000000
   201a -> 219a  :     0.014402 
   202a -> 221a  :     0.010152 
   202a -> 223a  :     0.010805 
   203a -> 227a  :     0.011440 
   205a -> 227a  :     0.013448 
   206a -> 219a  :     0.023951 
   211a -> 218a  :     0.013696 
   211a -> 219a  :     0.029817 
   212a -> 221a  :     0.013943 
   213a -> 218a  :     0.017384 
   213a -> 219a  :     0.025987 
   213a -> 221a  :     0.120756 
   213a -> 223a  :     0.011738 
   213a -> 226a  :     0.010866 
   213a -> 232a  :     0.022576 
   214a -> 219a  :     0.026333 
   216a -> 226a  :     0.021469 
   216a -> 228a  :     0.147599 


-------------------------
TD-DFT-EXCITATION SPECTRA
-------------------------

Center of mass = (  0.0353, -0.0025,  0.0209)
Calculating the Dipole integrals                  ... done
Transforming integrals                            ... done
Calculating the Linear Momentum integrals         ... done
Transforming integrals                            ... done
Calculating angular momentum integrals            ... done
Transforming integrals                            ... done

-----------------------------------------------------------------------------
         ABSORPTION SPECTRUM VIA TRANSITION ELECTRIC DIPOLE MOMENTS
-----------------------------------------------------------------------------
State   Energy    Wavelength  fosc         T2        TX        TY        TZ  
        (cm-1)      (nm)                 (au**2)    (au)      (au)      (au) 
-----------------------------------------------------------------------------
   1   36454.9    274.3   0.657111249   5.93416   1.96022  -0.42584   1.38215
   2   29193.7    342.5   0.233457737   2.63266   1.61063   0.09973  -0.16906
   3   35892.6    278.6   0.007757958   0.07116   0.23489  -0.12585  -0.01214
   4   32636.7    306.4   0.050697954   0.51140   0.02594  -0.63260   0.33249
   5   35385.5    282.6   0.262319927   2.44051  -0.55951   0.99511   1.06640
   6   35597.8    280.9   0.159026641   1.47069   0.41495   0.82400  -0.78711
   7   37273.2    268.3   0.026551030   0.23451  -0.41217  -0.07723  -0.24221
   8   31489.2    317.6   0.078262752   0.81822   0.66458  -0.28200   0.54501
   9   35668.7    280.4   0.210686649   1.94458   1.30089   0.00934   0.50218
  10   39299.1    254.5   0.030968470   0.25943   0.44530   0.02607   0.24588
  11   39415.5    253.7   0.035642615   0.29770   0.44809   0.05462   0.30649
  12   38906.6    257.0   0.027169166   0.22989  -0.18991   0.43928  -0.02936
  13   39862.0    250.9   0.021097618   0.17424  -0.04463  -0.27461   0.31119
  14   40397.9    247.5   0.004902063   0.03995   0.00170   0.19883  -0.02034
  15   34521.0    289.7   0.043673478   0.41649  -0.06365  -0.63539   0.09341
  16   40638.3    246.1   0.014534327   0.11774  -0.05145   0.33217   0.06897
  17   36139.1    276.7   0.035115798   0.31989   0.05867  -0.12662  -0.54810
  18   38043.8    262.9   0.013523965   0.11703  -0.25230  -0.20051   0.11476
  19   38982.9    256.5   0.004634112   0.03914  -0.18548  -0.00828  -0.06830
  20   45420.9    220.2   0.029911951   0.21680  -0.04885   0.45787   0.06911
  21   43280.4    231.1   0.019576979   0.14891   0.37905   0.06147   0.03814
  22   43686.7    228.9   0.108853393   0.82029  -0.38266  -0.81843   0.06355
  23   43849.0    228.1   0.023921386   0.17960   0.31490   0.20270   0.19837
  24   45586.3    219.4   0.028822842   0.20815  -0.18132   0.09242  -0.40833
  25   31745.4    315.0   0.072377632   0.75058   0.42965  -0.20565   0.72367
  26   35196.5    284.1   0.021564815   0.20171  -0.30727  -0.31203  -0.09966
  27   40321.0    248.0   0.078122158   0.63785   0.11561  -0.78628  -0.07905
  28   42528.3    235.1   0.045786197   0.35443   0.43764   0.36388   0.17462
  29   42731.0    234.0   0.154452967   1.18995  -0.08402   0.93728  -0.55173
  30   40254.7    248.4   0.187154043   1.53059  -1.14032   0.39557  -0.27161
  31   38620.9    258.9   0.127256960   1.08476  -0.81204   0.46961   0.45258
  32   41731.5    239.6   0.175678627   1.38589   0.76788  -0.85727   0.24767
  33   43553.2    229.6   0.364925680   2.75842   0.31659  -1.35403   0.90817
  34   39642.9    252.3   0.129359160   1.07426   0.81019  -0.11600   0.63591
  35   37404.0    267.4   0.037643528   0.33132   0.42736   0.31428   0.22340
  36   43188.6    231.5   0.052517434   0.40032   0.60149   0.06066  -0.18669
  37   44258.1    225.9   0.226779075   1.68689  -1.23443  -0.38007   0.13647
  38   44617.3    224.1   0.117586151   0.86762  -0.88112   0.23144  -0.19414
  39   43932.2    227.6   0.361077247   2.70578   1.45108   0.62389   0.45925
  40   42547.7    235.0   0.097543534   0.75474   0.65866   0.45591  -0.33623

-----------------------------------------------------------------------------
         ABSORPTION SPECTRUM VIA TRANSITION VELOCITY DIPOLE MOMENTS
-----------------------------------------------------------------------------
State   Energy    Wavelength   fosc        P2         PX        PY        PZ  
        (cm-1)      (nm)                 (au**2)     (au)      (au)      (au) 
-----------------------------------------------------------------------------
   1   36454.9    274.3   0.758193562   0.18890  -0.34854   0.07479  -0.24866
   2   29193.7    342.5   0.444244844   0.08864  -0.29567  -0.01738   0.03029
   3   35892.6    278.6   0.010442827   0.00256  -0.04310   0.02593  -0.00560
   4   32636.7    306.4   0.079607933   0.01776  -0.00701   0.11793  -0.06164
   5   35385.5    282.6   0.372729516   0.09014   0.10870  -0.19055  -0.20498
   6   35597.8    280.9   0.238702283   0.05807  -0.08000  -0.16404   0.15737
   7   37273.2    268.3   0.033709467   0.00859   0.07954   0.01699   0.04441
   8   31489.2    317.6   0.148413385   0.03194  -0.13064   0.05190  -0.11036
   9   35668.7    280.4   0.320778724   0.07820  -0.26093   0.00385  -0.10050
  10   39299.1    254.5   0.036357101   0.00977  -0.08448  -0.00231  -0.05121
  11   39415.5    253.7   0.044106455   0.01188  -0.09016  -0.01407  -0.05961
  12   38906.6    257.0   0.041626416   0.01107   0.04336  -0.09576   0.00422
  13   39862.0    250.9   0.027383080   0.00746   0.01103   0.05509  -0.06560
  14   40397.9    247.5   0.006349536   0.00175   0.00013  -0.04169   0.00387
  15   34521.0    289.7   0.088990162   0.02100   0.00711   0.14381  -0.01621
  16   40638.3    246.1   0.020431400   0.00567   0.01159  -0.07266  -0.01613
  17   36139.1    276.7   0.068333198   0.01688  -0.01497   0.03907   0.12299
  18   38043.8    262.9   0.021136860   0.00550   0.05564   0.04359  -0.02234
  19   38982.9    256.5   0.007478738   0.00199   0.03890   0.01454   0.01636
  20   45420.9    220.2   0.032560906   0.01011   0.00783  -0.09917  -0.01458
  21   43280.4    231.1   0.023700993   0.00701  -0.08194  -0.01315  -0.01109
  22   43686.7    228.9   0.139029998   0.04151   0.08605   0.18420  -0.01336
  23   43849.0    228.1   0.026603204   0.00797  -0.06770  -0.03974  -0.04255
  24   45586.3    219.4   0.028071729   0.00875   0.04234  -0.01676   0.08169
  25   31745.4    315.0   0.154272268   0.03347  -0.09352   0.03908  -0.15231
  26   35196.5    284.1   0.035980984   0.00866   0.06481   0.06359   0.02030
  27   40321.0    248.0   0.120614083   0.03324  -0.02569   0.17930   0.02075
  28   42528.3    235.1   0.068661426   0.01996  -0.10335  -0.08670  -0.04194
  29   42731.0    234.0   0.210238177   0.06140   0.02335  -0.21153   0.12692
  30   40254.7    248.4   0.305155777   0.08395   0.26666  -0.08948   0.06957
  31   38620.9    258.9   0.222828943   0.05882   0.18369  -0.11446  -0.10943
  32   41731.5    239.6   0.261369185   0.07455  -0.17475   0.20159  -0.05804
  33   43553.2    229.6   0.506955739   0.15090  -0.07451   0.31692  -0.21193
  34   39642.9    252.3   0.208883477   0.05659  -0.18812   0.02523  -0.14341
  35   37404.0    267.4   0.075344919   0.01926  -0.10230  -0.07647  -0.05429
  36   43188.6    231.5   0.076236403   0.02250  -0.14211  -0.01834   0.04440
  37   44258.1    225.9   0.303100492   0.09168   0.28820   0.08730  -0.03164
  38   44617.3    224.1   0.157943122   0.04816   0.20797  -0.05533   0.04303
  39   43932.2    227.6   0.505084166   0.15165  -0.34406  -0.14764  -0.10712
  40   42547.7    235.0   0.150612484   0.04380  -0.15829  -0.11207   0.07862

-------------------------------------------------------------------
                             CD SPECTRUM
-------------------------------------------------------------------
State  Energy     Wavelength     R         MX        MY        MZ   
       (cm-1)       (nm)     (1e40*cgs)   (au)      (au)      (au)  
-------------------------------------------------------------------
   1   36454.9    274.3    142.53972  -0.11606   1.27298   0.77556
   2   29193.7    342.5    -244.66492  -0.32342   0.40834   0.22939
   3   35892.6    278.6     29.45324   0.09805  -0.29017  -0.24095
   4   32636.7    306.4    127.74596  -0.54195  -0.47410  -0.04479
   5   35385.5    282.6     54.90055   0.44462  -0.42011   0.73450
   6   35597.8    280.9    -95.00932  -0.04973   0.27959   0.52251
   7   37273.2    268.3    -60.42918   0.27603  -0.08578   0.08683
   8   31489.2    317.6     14.85466   0.13522  -0.23914  -0.23081
   9   35668.7    280.4    -29.75916   0.11884  -0.11906  -0.43133
  10   39299.1    254.5     12.73425   0.00859   0.25331   0.06744
  11   39415.5    253.7      0.31957   0.18124  -0.01880  -0.25941
  12   38906.6    257.0     21.61891  -0.03652   0.09461   0.08990
  13   39862.0    250.9     52.41004  -0.28737  -0.21519   0.12613
  14   40397.9    247.5    -15.21546  -0.04401  -0.15069   0.10996
  15   34521.0    289.7     58.77025  -0.22939  -0.16626   0.04728
  16   40638.3    246.1     12.70543  -0.10438   0.02744   0.18072
  17   36139.1    276.7     -7.46989  -0.07834   0.24207  -0.03540
  18   38043.8    262.9    -34.78736   0.35969  -0.22066  -0.23773
  19   38982.9    256.5     20.73121  -0.19630  -0.09768  -0.09892
  20   45420.9    220.2    -32.59018   0.01476  -0.13435  -0.09974
  21   43280.4    231.1    -39.52583  -0.22917  -0.15642   0.33150
  22   43686.7    228.9    -51.71862  -0.31359   0.29340   0.16411
  23   43849.0    228.1     61.91356   0.34186   0.13286  -0.01642
  24   45586.3    219.4    -38.09060  -0.01700   0.06078   0.21917
  25   31745.4    315.0     58.42223   0.09817   0.31681   0.20298
  26   35196.5    284.1     21.04703   0.02786  -0.16665  -0.01207
  27   40321.0    248.0    -161.79350  -0.71361   0.28353   0.47760
  28   42528.3    235.1    -87.43794  -0.19241  -0.36114   0.17268
  29   42731.0    234.0    -24.50455   0.07828  -0.00841   0.06800
  30   40254.7    248.4    -142.83994   0.06546  -0.23039   0.50515
  31   38620.9    258.9    -207.98746   0.75746   0.32167   0.05051
  32   41731.5    239.6    232.09468   0.32615  -0.34212  -0.20765
  33   43553.2    229.6    -268.94386  -0.12477   0.82844   0.65051
  34   39642.9    252.3    299.66876   0.13655   0.25224   0.87160
  35   37404.0    267.4     74.43273   0.54469  -0.34235   0.14634
  36   43188.6    231.5    -445.88004  -1.26224  -0.79107   0.74215
  37   44258.1    225.9    504.89822  -0.68941  -0.23618   0.95375
  38   44617.3    224.1    -145.15853   0.11941  -0.65617   0.26179
  39   43932.2    227.6     -7.84965  -0.37169  -0.28262   1.52213
  40   42547.7    235.0    -367.67607  -0.35116  -0.89869   0.41301

Total run time:    57967.265 sec

           *** ORCA-CIS/TD-DFT FINISHED WITHOUT ERROR ***

Maximum memory used throughout the entire CIS-calculation: 6118.6 MB

-----------------------
CIS/TD-DFT TOTAL ENERGY
-----------------------

    E(SCF)  =  -4537.722608686 Eh
    DE(CIS) =      0.166100565 Eh (Root  1)
    ----------------------------- ---------
    E(tot)  =  -4537.556508121 Eh


-------------------------   --------------------
FINAL SINGLE POINT ENERGY     -4537.556508121252
-------------------------   --------------------


                            ***************************************
                            *     ORCA property calculations      *
                            ***************************************


  WARNING: The energy has been calculated at the MP2 level but the densities
           used in the property calculations are still SCF densities
           MP2 response densities have not been calculated 
           use %mp2 Density relaxed end
           or  %mp2 Density unrelaxed end

                                    ---------------------
                                    Active property flags
                                    ---------------------
   (+) Dipole Moment


------------------------------------------------------------------------------
                       ORCA ELECTRIC PROPERTIES CALCULATION
------------------------------------------------------------------------------

Dipole Moment Calculation                       ... on
Quadrupole Moment Calculation                   ... off
Polarizability Calculation                      ... off
GBWName                                         ... Cu50_DPEPhos-pytri.gbw
Electron density                                ... Cu50_DPEPhos-pytri.scfp
The origin for moment calculation is the CENTER OF MASS  = ( 0.035284, -0.002473  0.020936)

-------------
DIPOLE MOMENT
-------------
                                X             Y             Z
Electronic contribution:     14.17261      -2.82961      11.16283
Nuclear contribution   :    -15.34854       1.07561      -9.10706
                        -----------------------------------------
Total Dipole Moment    :     -1.17593      -1.75399       2.05576
                        -----------------------------------------
Magnitude (a.u.)       :      2.94711
Magnitude (Debye)      :      7.49096



--------------------
Rotational spectrum 
--------------------
 
Rotational constants in cm-1:     0.001847     0.001372     0.001226 
Rotational constants in MHz :    55.376394    41.117827    36.746550 

 Dipole components along the rotational axes: 
x,y,z [a.u.] :     1.189871    -1.745567     2.054914 
x,y,z [Debye]:     3.024411    -4.436878     5.223177 

 

Timings for individual modules:

Sum of individual times         ...    63497.407 sec (=1058.290 min)
GTO integral calculation        ...       10.206 sec (=   0.170 min)   0.0 %
SCF iterations                  ...     2956.017 sec (=  49.267 min)   4.7 %
MP2 module                      ...     2562.483 sec (=  42.708 min)   4.0 %
CIS module                      ...    57968.701 sec (= 966.145 min)  91.3 %
                             ****ORCA TERMINATED NORMALLY****
TOTAL RUN TIME: 0 days 17 hours 38 minutes 22 seconds 898 msec
