
                                 *****************
                                 * O   R   C   A *
                                 *****************

                                            #,                                       
                                            ###                                      
                                            ####                                     
                                            #####                                    
                                            ######                                   
                                           ########,                                 
                                     ,,################,,,,,                         
                               ,,#################################,,                 
                          ,,##########################################,,             
                       ,#########################################, ''#####,          
                    ,#############################################,,   '####,        
                  ,##################################################,,,,####,       
                ,###########''''           ''''###############################       
              ,#####''   ,,,,##########,,,,          '''####'''          '####       
            ,##' ,,,,###########################,,,                        '##       
           ' ,,###''''                  '''############,,,                           
         ,,##''                                '''############,,,,        ,,,,,,###''
      ,#''                                            '''#######################'''  
     '                                                          ''''####''''         
             ,#######,   #######,   ,#######,      ##                                
            ,#'     '#,  ##    ##  ,#'     '#,    #''#        ######   ,####,        
            ##       ##  ##   ,#'  ##            #'  '#       #        #'  '#        
            ##       ##  #######   ##           ,######,      #####,   #    #        
            '#,     ,#'  ##    ##  '#,     ,#' ,#      #,         ##   #,  ,#        
             '#######'   ##     ##  '#######'  #'      '#     #####' # '####'        



                  #######################################################
                  #                        -***-                        #
                  #          Department of theory and spectroscopy      #
                  #    Directorship and core code : Frank Neese         #
                  #        Max Planck Institute fuer Kohlenforschung    #
                  #                Kaiser Wilhelm Platz 1               #
                  #                 D-45470 Muelheim/Ruhr               #
                  #                      Germany                        #
                  #                                                     #
                  #                  All rights reserved                #
                  #                        -***-                        #
                  #######################################################


                         Program Version 5.0.4 -  RELEASE  -


 With contributions from (in alphabetic order):
   Daniel Aravena         : Magnetic Suceptibility
   Michael Atanasov       : Ab Initio Ligand Field Theory (pilot matlab implementation)
   Alexander A. Auer      : GIAO ZORA, VPT2 properties, NMR spectrum
   Ute Becker             : Parallelization
   Giovanni Bistoni       : ED, misc. LED, open-shell LED, HFLD
   Martin Brehm           : Molecular dynamics
   Dmytro Bykov           : SCF Hessian
   Vijay G. Chilkuri      : MRCI spin determinant printing, contributions to CSF-ICE
   Dipayan Datta          : RHF DLPNO-CCSD density
   Achintya Kumar Dutta   : EOM-CC, STEOM-CC
   Dmitry Ganyushin       : Spin-Orbit,Spin-Spin,Magnetic field MRCI
   Miquel Garcia          : C-PCM and meta-GGA Hessian, CC/C-PCM, Gaussian charge scheme
   Yang Guo               : DLPNO-NEVPT2, F12-NEVPT2, CIM, IAO-localization
   Andreas Hansen         : Spin unrestricted coupled pair/coupled cluster methods
   Benjamin Helmich-Paris : MC-RPA, TRAH-SCF, COSX integrals
   Lee Huntington         : MR-EOM, pCC
   Robert Izsak           : Overlap fitted RIJCOSX, COSX-SCS-MP3, EOM
   Marcus Kettner         : VPT2
   Christian Kollmar      : KDIIS, OOCD, Brueckner-CCSD(T), CCSD density, CASPT2, CASPT2-K
   Simone Kossmann        : Meta GGA functionals, TD-DFT gradient, OOMP2, MP2 Hessian
   Martin Krupicka        : Initial AUTO-CI
   Lucas Lang             : DCDCAS
   Marvin Lechner         : AUTO-CI (C++ implementation), FIC-MRCC
   Dagmar Lenk            : GEPOL surface, SMD
   Dimitrios Liakos       : Extrapolation schemes; Compound Job, initial MDCI parallelization
   Dimitrios Manganas     : Further ROCIS development; embedding schemes
   Dimitrios Pantazis     : SARC Basis sets
   Anastasios Papadopoulos: AUTO-CI, single reference methods and gradients
   Taras Petrenko         : DFT Hessian,TD-DFT gradient, ASA, ECA, R-Raman, ABS, FL, XAS/XES, NRVS
   Peter Pinski           : DLPNO-MP2, DLPNO-MP2 Gradient
   Christoph Reimann      : Effective Core Potentials
   Marius Retegan         : Local ZFS, SOC
   Christoph Riplinger    : Optimizer, TS searches, QM/MM, DLPNO-CCSD(T), (RO)-DLPNO pert. Triples
   Tobias Risthaus        : Range-separated hybrids, TD-DFT gradient, RPA, STAB
   Michael Roemelt        : Original ROCIS implementation
   Masaaki Saitow         : Open-shell DLPNO-CCSD energy and density
   Barbara Sandhoefer     : DKH picture change effects
   Avijit Sen             : IP-ROCIS
   Kantharuban Sivalingam : CASSCF convergence, NEVPT2, FIC-MRCI
   Bernardo de Souza      : ESD, SOC TD-DFT
   Georgi Stoychev        : AutoAux, RI-MP2 NMR, DLPNO-MP2 response
   Willem Van den Heuvel  : Paramagnetic NMR
   Boris Wezisla          : Elementary symmetry handling
   Frank Wennmohs         : Technical directorship


 We gratefully acknowledge several colleagues who have allowed us to
 interface, adapt or use parts of their codes:
   Stefan Grimme, W. Hujo, H. Kruse, P. Pracht,  : VdW corrections, initial TS optimization,
                  C. Bannwarth, S. Ehlert          DFT functionals, gCP, sTDA/sTD-DF
   Ed Valeev, F. Pavosevic, A. Kumar             : LibInt (2-el integral package), F12 methods
   Garnet Chan, S. Sharma, J. Yang, R. Olivares  : DMRG
   Ulf Ekstrom                                   : XCFun DFT Library
   Mihaly Kallay                                 : mrcc  (arbitrary order and MRCC methods)
   Jiri Pittner, Ondrej Demel                    : Mk-CCSD
   Frank Weinhold                                : gennbo (NPA and NBO analysis)
   Christopher J. Cramer and Donald G. Truhlar   : smd solvation model
   Lars Goerigk                                  : TD-DFT with DH, B97 family of functionals
   V. Asgeirsson, H. Jonsson                     : NEB implementation
   FAccTs GmbH                                   : IRC, NEB, NEB-TS, DLPNO-Multilevel, CI-OPT
                                                   MM, QMMM, 2- and 3-layer-ONIOM, Crystal-QMMM,
                                                   LR-CPCM, SF, NACMEs, symmetry and pop. for TD-DFT,
                                                   nearIR, NL-DFT gradient (VV10), updates on ESD,
                                                   ML-optimized integration grids
   S Lehtola, MJT Oliveira, MAL Marques          : LibXC Library
   Liviu Ungur et al                             : ANISO software


 Your calculation uses the libint2 library for the computation of 2-el integrals
 For citations please refer to: http://libint.valeyev.net

 Your ORCA version has been built with support for libXC version: 5.1.0
 For citations please refer to: https://tddft.org/programs/libxc/

 This ORCA versions uses:
   CBLAS   interface :  Fast vector & matrix operations
   LAPACKE interface :  Fast linear algebra routines
   SCALAPACK package :  Parallel linear algebra routines
   Shared memory     :  Shared parallel matrices
   BLAS/LAPACK       :  OpenBLAS 0.3.15  USE64BITINT DYNAMIC_ARCH NO_AFFINITY Zen SINGLE_THREADED
        Core in use  :  Zen
   Copyright (c) 2011-2014, The OpenBLAS Project


Your calculation utilizes the SMD solvation module
Please cite in your paper:
A.V. Marenich, C.J. Cramer, D.G. Truhlar J. Phys. Chem. B, 113, (2009), 6378 

================================================================================

----- Orbital basis set information -----
Your calculation utilizes the basis: def2-SVP
   F. Weigend and R. Ahlrichs, Phys. Chem. Chem. Phys. 7, 3297 (2005).

----- AuxJ basis set information -----
Your calculation utilizes the auxiliary basis: def2/J
   F. Weigend, Phys. Chem. Chem. Phys. 8, 1057 (2006).

----- AuxC basis set information -----
Your calculation utilizes the auxiliary basis: def2-SVP/C
  H-La, Hf-Rn : A. Hellweg, C. Hattig, S. Hofener and W. Klopper, Theor. Chem. Acc. 117, 587 (2007).
        Ce-Lu : J. Chmela and M. E. Harding, Mol. Phys. (2018).

================================================================================
                                        WARNINGS
                       Please study these warnings very carefully!
================================================================================

INFO   : Checking CIS options ...
  ===> : (D) CORRECTION FOUND - SETTING MODE=3
  ===> : JK MODE FOUND - ACTIVATING RI-MP2 CODE
  ===> : MP2 AND CIS FOUND - CHECKING
WARNING: CIS(D) and MP2 runs must have the same orbital window
  ===> : adjusting orbital windows

WARNING: No MP2 level density has been requested!
         To caclulate MP2 level properties use
         %mp2 Density relaxed end
         or
         %mp2 Density unrelaxed end
         Otherwise for double-hybrid DFT only the energy is correct!

WARNING: The frozen-core approximation is turned on by default for 
         the MP2 part of double-hybrid DFT.

WARNING:  You are using a Range-Separated Double Hybrid functional with Doubles Correction 
          Changing Mode to RPA_AOINTS 


WARNING: CIS/ROCIS methods need fully converged wavefunctions
  ===> : Setting SCFConvForced true
         You can overwrite this default with %scf ConvForced false 


INFO   : the flag for use of the SHARK integral package has been found!

================================================================================
                                       INPUT FILE
================================================================================
NAME = Cu50_DPEPhos-pytri_SOS-wPBEPP86_def2SVP.inp
|  1> %maxcore 8000
|  2> %pal
|  3>  nprocs 8
|  4> end
|  5> ! RI-SOS-wPBEPP86 def2-SVP def2/J def2-SVP/C RIJCOSX CPCM TIGHTSCF
|  6> 
|  7> %TDDFT 
|  8>     DCORR     1
|  9>     NROOTS    40
| 10>     doscs     TRUE
| 11>     TDA       FALSE
| 12> END
| 13> 
| 14> %CPCM
| 15>     SMD		TRUE
| 16>     SMDsolvent	"CH2Cl2"
| 17> END
| 18> 
| 19> * xyz 1 1
| 20> C                   1.30904400    2.46660000   -1.01391400
| 21> C                   1.13716900    1.59170300   -2.10342800
| 22> C                   1.94802200    1.67402700   -3.23346100
| 23> C                   2.93429900    2.65699700   -3.29281800
| 24> C                   3.10247100    3.55512100   -2.24043500
| 25> C                   2.29693100    3.45404700   -1.10749700
| 26> C                   0.99794400   -1.56086600   -2.18248400
| 27> C                   0.18975500   -0.51838200   -2.67212700
| 28> C                  -0.60046800   -0.68308500   -3.80519800
| 29> C                  -0.58458600   -1.90025200   -4.48295900
| 30> C                   0.21750100   -2.94481200   -4.02446600
| 31> C                   0.99560300   -2.77636800   -2.88085200
| 32> C                  -1.31030400    2.63809700    0.26406700
| 33> C                  -1.75628000    3.22157900   -0.92627400
| 34> C                  -3.09375800    3.59565000   -1.06608900
| 35> C                  -3.99443000    3.38816900   -0.02289600
| 36> C                  -3.55786300    2.79755400    1.16489600
| 37> C                  -2.22603800    2.41944500    1.30484700
| 38> C                   1.08102200    3.23325000    1.75470900
| 39> C                   2.03494200    2.75105700    2.66103400
| 40> C                   2.60784300    3.60288900    3.60370400
| 41> C                   2.21977600    4.94112000    3.65659900
| 42> C                   1.25922500    5.42630700    2.76764100
| 43> C                   0.69117600    4.57852500    1.81937300
| 44> C                   2.24963600   -2.97356900    0.00000600
| 45> C                   1.14279100   -3.76564300    0.35197800
| 46> C                   1.32459700   -5.00541500    0.95513600
| 47> C                   2.61399400   -5.46350800    1.23764900
| 48> C                   3.71558100   -4.67902300    0.90392400
| 49> C                   3.53836800   -3.43953100    0.28573100
| 50> C                   3.52142600   -0.61640000   -1.13257300
| 51> C                   4.06166700    0.44990700   -0.40431800
| 52> C                   5.28637000    1.00486200   -0.77288400
| 53> C                   5.97576300    0.49863500   -1.87344000
| 54> C                   5.44142500   -0.56294600   -2.60692700
| 55> C                   4.21853300   -1.11846200   -2.24100100
| 56> H                   1.80959400    0.96852200   -4.05582800
| 57> H                   3.57417800    2.71945500   -4.17571100
| 58> H                   3.87159500    4.32770500   -2.29412400
| 59> H                   2.45379000    4.13821300   -0.26926000
| 60> H                  -1.22266500    0.14985800   -4.13777300
| 61> H                  -1.20279200   -2.03197000   -5.37325000
| 62> H                   0.23288500   -3.89867900   -4.55501100
| 63> H                   1.60429800   -3.60749400   -2.51301100
| 64> H                  -3.43028300    4.05968600   -1.99618400
| 65> H                  -5.04049100    3.68310700   -0.13424200
| 66> H                  -4.26074500    2.63143900    1.98495900
| 67> H                  -1.88783100    1.94763900    2.23456100
| 68> H                   3.35132200    3.21957500    4.30586800
| 69> H                   2.66223600    5.60875000    4.39900700
| 70> H                   0.95087300    6.47297000    2.81398200
| 71> H                  -0.06077100    4.96252900    1.12321100
| 72> H                   0.45628900   -5.61615700    1.21414000
| 73> H                   2.75778300   -6.43430400    1.71664600
| 74> H                   4.72565300   -5.03384000    1.12028600
| 75> H                   4.41091700   -2.83344300    0.02674700
| 76> H                   5.69705600    1.84210700   -0.20400100
| 77> H                   6.93348200    0.93505500   -2.16546400
| 78> H                   5.98120600   -0.95766400   -3.47047800
| 79> H                   3.79939400   -1.94532500   -2.82290100
| 80> O                   0.12086800    0.67596800   -1.98399700
| 81> P                   0.40609300    2.07527400    0.52168800
| 82> P                   1.91045700   -1.29350900   -0.61724700
| 83> H                   2.31873000    1.69308000    2.62699600
| 84> H                  -1.05457900    3.39219400   -1.74761300
| 85> H                   3.50197700    0.85513800    0.44635500
| 86> H                   0.12989800   -3.39992400    0.14729700
| 87> Cu                  0.54472000   -0.15761000    0.81312200
| 88> C                  -0.83714200   -1.88853600    2.75749000
| 89> C                  -1.06887700   -2.79637300    3.79510200
| 90> C                  -0.01741400   -3.14129100    4.63639300
| 91> C                   1.23878600   -2.57778700    4.41382800
| 92> C                   1.38503500   -1.67609500    3.36575800
| 93> H                  -2.05905000   -3.23715400    3.92571500
| 94> H                   2.09371800   -2.83066300    5.04172400
| 95> H                   2.35437200   -1.21216900    3.15498000
| 96> N                   0.37683800   -1.32348700    2.56085200
| 97> H                  -0.17288900   -3.85095900    5.45099200
| 98> C                  -1.84459000   -1.50405600    1.77806400
| 99> C                  -3.21804000   -1.63661400    1.69766400
|100> H                  -3.96062800   -2.03984600    2.37800000
|101> N                  -1.43787800   -0.86309600    0.64284500
|102> N                  -2.45206500   -0.60032800   -0.12083900
|103> N                  -3.54614200   -1.06218300    0.51129000
|104> C                  -4.83230900   -0.88730200   -0.06838700
|105> C                  -5.90259000   -1.68112300    0.34469600
|106> C                  -5.01205700    0.09329700   -1.04634300
|107> C                  -7.15860800   -1.47963000   -0.21782100
|108> H                  -5.76157100   -2.46622200    1.09012400
|109> C                  -6.27358200    0.27353300   -1.59894100
|110> H                  -4.16544000    0.70875200   -1.35259900
|111> C                  -7.37226600   -0.50276700   -1.19985000
|112> H                  -7.99341300   -2.10353900    0.11036000
|113> H                  -6.41279700    1.04760400   -2.35838600
|114> C                  -8.71693500   -0.31287600   -1.82235600
|115> H                  -8.80348900   -0.88600900   -2.75844300
|116> H                  -9.52655300   -0.65330700   -1.16526700
|117> H                  -8.90393000    0.73745900   -2.07989200
|118> *
|119> 
|120>                          ****END OF INPUT****
================================================================================

                       ****************************
                       * Single Point Calculation *
                       ****************************

---------------------------------
CARTESIAN COORDINATES (ANGSTROEM)
---------------------------------
  C      1.309044    2.466600   -1.013914
  C      1.137169    1.591703   -2.103428
  C      1.948022    1.674027   -3.233461
  C      2.934299    2.656997   -3.292818
  C      3.102471    3.555121   -2.240435
  C      2.296931    3.454047   -1.107497
  C      0.997944   -1.560866   -2.182484
  C      0.189755   -0.518382   -2.672127
  C     -0.600468   -0.683085   -3.805198
  C     -0.584586   -1.900252   -4.482959
  C      0.217501   -2.944812   -4.024466
  C      0.995603   -2.776368   -2.880852
  C     -1.310304    2.638097    0.264067
  C     -1.756280    3.221579   -0.926274
  C     -3.093758    3.595650   -1.066089
  C     -3.994430    3.388169   -0.022896
  C     -3.557863    2.797554    1.164896
  C     -2.226038    2.419445    1.304847
  C      1.081022    3.233250    1.754709
  C      2.034942    2.751057    2.661034
  C      2.607843    3.602889    3.603704
  C      2.219776    4.941120    3.656599
  C      1.259225    5.426307    2.767641
  C      0.691176    4.578525    1.819373
  C      2.249636   -2.973569    0.000006
  C      1.142791   -3.765643    0.351978
  C      1.324597   -5.005415    0.955136
  C      2.613994   -5.463508    1.237649
  C      3.715581   -4.679023    0.903924
  C      3.538368   -3.439531    0.285731
  C      3.521426   -0.616400   -1.132573
  C      4.061667    0.449907   -0.404318
  C      5.286370    1.004862   -0.772884
  C      5.975763    0.498635   -1.873440
  C      5.441425   -0.562946   -2.606927
  C      4.218533   -1.118462   -2.241001
  H      1.809594    0.968522   -4.055828
  H      3.574178    2.719455   -4.175711
  H      3.871595    4.327705   -2.294124
  H      2.453790    4.138213   -0.269260
  H     -1.222665    0.149858   -4.137773
  H     -1.202792   -2.031970   -5.373250
  H      0.232885   -3.898679   -4.555011
  H      1.604298   -3.607494   -2.513011
  H     -3.430283    4.059686   -1.996184
  H     -5.040491    3.683107   -0.134242
  H     -4.260745    2.631439    1.984959
  H     -1.887831    1.947639    2.234561
  H      3.351322    3.219575    4.305868
  H      2.662236    5.608750    4.399007
  H      0.950873    6.472970    2.813982
  H     -0.060771    4.962529    1.123211
  H      0.456289   -5.616157    1.214140
  H      2.757783   -6.434304    1.716646
  H      4.725653   -5.033840    1.120286
  H      4.410917   -2.833443    0.026747
  H      5.697056    1.842107   -0.204001
  H      6.933482    0.935055   -2.165464
  H      5.981206   -0.957664   -3.470478
  H      3.799394   -1.945325   -2.822901
  O      0.120868    0.675968   -1.983997
  P      0.406093    2.075274    0.521688
  P      1.910457   -1.293509   -0.617247
  H      2.318730    1.693080    2.626996
  H     -1.054579    3.392194   -1.747613
  H      3.501977    0.855138    0.446355
  H      0.129898   -3.399924    0.147297
  Cu     0.544720   -0.157610    0.813122
  C     -0.837142   -1.888536    2.757490
  C     -1.068877   -2.796373    3.795102
  C     -0.017414   -3.141291    4.636393
  C      1.238786   -2.577787    4.413828
  C      1.385035   -1.676095    3.365758
  H     -2.059050   -3.237154    3.925715
  H      2.093718   -2.830663    5.041724
  H      2.354372   -1.212169    3.154980
  N      0.376838   -1.323487    2.560852
  H     -0.172889   -3.850959    5.450992
  C     -1.844590   -1.504056    1.778064
  C     -3.218040   -1.636614    1.697664
  H     -3.960628   -2.039846    2.378000
  N     -1.437878   -0.863096    0.642845
  N     -2.452065   -0.600328   -0.120839
  N     -3.546142   -1.062183    0.511290
  C     -4.832309   -0.887302   -0.068387
  C     -5.902590   -1.681123    0.344696
  C     -5.012057    0.093297   -1.046343
  C     -7.158608   -1.479630   -0.217821
  H     -5.761571   -2.466222    1.090124
  C     -6.273582    0.273533   -1.598941
  H     -4.165440    0.708752   -1.352599
  C     -7.372266   -0.502767   -1.199850
  H     -7.993413   -2.103539    0.110360
  H     -6.412797    1.047604   -2.358386
  C     -8.716935   -0.312876   -1.822356
  H     -8.803489   -0.886009   -2.758443
  H     -9.526553   -0.653307   -1.165267
  H     -8.903930    0.737459   -2.079892

----------------------------
CARTESIAN COORDINATES (A.U.)
----------------------------
  NO LB      ZA    FRAG     MASS         X           Y           Z
   0 C     6.0000    0    12.011    2.473735    4.661198   -1.916020
   1 C     6.0000    0    12.011    2.148938    3.007883   -3.974903
   2 C     6.0000    0    12.011    3.681228    3.163453   -6.110356
   3 C     6.0000    0    12.011    5.545022    5.020997   -6.222524
   4 C     6.0000    0    12.011    5.862821    6.718205   -4.233809
   5 C     6.0000    0    12.011    4.340571    6.527203   -2.092866
   6 C     6.0000    0    12.011    1.885841   -2.949609   -4.124297
   7 C     6.0000    0    12.011    0.358585   -0.979600   -5.049588
   8 C     6.0000    0    12.011   -1.134720   -1.290844   -7.190782
   9 C     6.0000    0    12.011   -1.104707   -3.590956   -8.471565
  10 C     6.0000    0    12.011    0.411017   -5.564888   -7.605139
  11 C     6.0000    0    12.011    1.881417   -5.246575   -5.444021
  12 C     6.0000    0    12.011   -2.476116    4.985281    0.499014
  13 C     6.0000    0    12.011   -3.318888    6.087902   -1.750404
  14 C     6.0000    0    12.011   -5.846355    6.794794   -2.014616
  15 C     6.0000    0    12.011   -7.548379    6.402712   -0.043267
  16 C     6.0000    0    12.011   -6.723387    5.286611    2.201334
  17 C     6.0000    0    12.011   -4.206602    4.572088    2.465803
  18 C     6.0000    0    12.011    2.042836    6.109957    3.315919
  19 C     6.0000    0    12.011    3.845483    5.198744    5.028625
  20 C     6.0000    0    12.011    4.928109    6.808474    6.810014
  21 C     6.0000    0    12.011    4.194769    9.337364    6.909971
  22 C     6.0000    0    12.011    2.379590   10.254234    5.230084
  23 C     6.0000    0    12.011    1.306133    8.652158    3.438117
  24 C     6.0000    0    12.011    4.251196   -5.619231    0.000011
  25 C     6.0000    0    12.011    2.159562   -7.116034    0.665142
  26 C     6.0000    0    12.011    2.503126   -9.458864    1.804945
  27 C     6.0000    0    12.011    4.939733  -10.324534    2.338818
  28 C     6.0000    0    12.011    7.021431   -8.842072    1.708169
  29 C     6.0000    0    12.011    6.686546   -6.499772    0.539953
  30 C     6.0000    0    12.011    6.654531   -1.164827   -2.140253
  31 C     6.0000    0    12.011    7.675438    0.850201   -0.764050
  32 C     6.0000    0    12.011    9.989792    1.898914   -1.460539
  33 C     6.0000    0    12.011   11.292556    0.942284   -3.540289
  34 C     6.0000    0    12.011   10.282803   -1.063814   -4.926378
  35 C     6.0000    0    12.011    7.971872   -2.113587   -4.234878
  36 H     1.0000    0     1.008    3.419637    1.830241   -7.664404
  37 H     1.0000    0     1.008    6.754218    5.139025   -7.890950
  38 H     1.0000    0     1.008    7.316254    8.178177   -4.335266
  39 H     1.0000    0     1.008    4.636991    7.820089   -0.508828
  40 H     1.0000    0     1.008   -2.310502    0.283191   -7.819258
  41 H     1.0000    0     1.008   -2.272947   -3.839867  -10.153971
  42 H     1.0000    0     1.008    0.440089   -7.367436   -8.607723
  43 H     1.0000    0     1.008    3.031684   -6.817176   -4.748903
  44 H     1.0000    0     1.008   -6.482295    7.671695   -3.772241
  45 H     1.0000    0     1.008   -9.525148    6.960064   -0.253681
  46 H     1.0000    0     1.008   -8.051641    4.972699    3.751029
  47 H     1.0000    0     1.008   -3.567484    3.680504    4.222708
  48 H     1.0000    0     1.008    6.333081    6.084115    8.136911
  49 H     1.0000    0     1.008    5.030897   10.599001    8.312918
  50 H     1.0000    0     1.008    1.796890   12.232141    5.317655
  51 H     1.0000    0     1.008   -0.114841    9.377821    2.122561
  52 H     1.0000    0     1.008    0.862261  -10.612999    2.294392
  53 H     1.0000    0     1.008    5.211455  -12.159072    3.243991
  54 H     1.0000    0     1.008    8.930190   -9.512579    2.117034
  55 H     1.0000    0     1.008    8.335425   -5.354431    0.050545
  56 H     1.0000    0     1.008   10.765876    3.481078   -0.385506
  57 H     1.0000    0     1.008   13.102382    1.766998   -4.092134
  58 H     1.0000    0     1.008   11.302841   -1.809723   -6.558253
  59 H     1.0000    0     1.008    7.179814   -3.676131   -5.334510
  60 O     8.0000    0    15.999    0.228407    1.277394   -3.749211
  61 P    15.0000    0    30.974    0.767405    3.921700    0.985847
  62 P    15.0000    0    30.974    3.610241   -2.444378   -1.166428
  63 H     1.0000    0     1.008    4.381765    3.199458    4.964303
  64 H     1.0000    0     1.008   -1.992865    6.410318   -3.302510
  65 H     1.0000    0     1.008    6.617777    1.615977    0.843489
  66 H     1.0000    0     1.008    0.245472   -6.424925    0.278351
  67 Cu   29.0000    0    63.550    1.029372   -0.297840    1.536578
  68 C     6.0000    0    12.011   -1.581969   -3.568816    5.210901
  69 C     6.0000    0    12.011   -2.019885   -5.284379    7.171703
  70 C     6.0000    0    12.011   -0.032908   -5.936180    8.761513
  71 C     6.0000    0    12.011    2.340966   -4.871311    8.340926
  72 C     6.0000    0    12.011    2.617337   -3.167361    6.360361
  73 H     1.0000    0     1.008   -3.891041   -6.117335    7.418526
  74 H     1.0000    0     1.008    3.956554   -5.349178    9.527478
  75 H     1.0000    0     1.008    4.449118   -2.290667    5.962048
  76 N     7.0000    0    14.007    0.712121   -2.501028    4.839309
  77 H     1.0000    0     1.008   -0.326713   -7.277258   10.300882
  78 C     6.0000    0    12.011   -3.485770   -2.842254    3.360054
  79 C     6.0000    0    12.011   -6.081214   -3.092752    3.208120
  80 H     1.0000    0     1.008   -7.484502   -3.854750    4.493769
  81 N     7.0000    0    14.007   -2.717196   -1.631015    1.214801
  82 N     7.0000    0    14.007   -4.633731   -1.134456   -0.228353
  83 N     7.0000    0    14.007   -6.701237   -2.007235    0.966198
  84 C     6.0000    0    12.011   -9.131741   -1.676758   -0.129233
  85 C     6.0000    0    12.011  -11.154279   -3.176862    0.651381
  86 C     6.0000    0    12.011   -9.471415    0.176306   -1.977302
  87 C     6.0000    0    12.011  -13.527809   -2.796095   -0.411622
  88 H     1.0000    0     1.008  -10.887791   -4.660484    2.060036
  89 C     6.0000    0    12.011  -11.855352    0.516902   -3.021561
  90 H     1.0000    0     1.008   -7.871541    1.339347   -2.556042
  91 C     6.0000    0    12.011  -13.931564   -0.950092   -2.267388
  92 H     1.0000    0     1.008  -15.105361   -3.975113    0.208550
  93 H     1.0000    0     1.008  -12.118430    1.979685   -4.456704
  94 C     6.0000    0    12.011  -16.472620   -0.591250   -3.443754
  95 H     1.0000    0     1.008  -16.636183   -1.674314   -5.212702
  96 H     1.0000    0     1.008  -18.002576   -1.234571   -2.202036
  97 H     1.0000    0     1.008  -16.825989    1.393596   -3.930426

--------------------------------
INTERNAL COORDINATES (ANGSTROEM)
--------------------------------
 C      0   0   0     0.000000000000     0.00000000     0.00000000
 C      1   0   0     1.407844640729     0.00000000     0.00000000
 C      2   1   0     1.393281884499   121.32553849     0.00000000
 C      3   2   1     1.393734406219   119.21235521   358.95936015
 C      4   3   2     1.393706755257   120.51216567   359.48123525
 C      5   4   3     1.393793082534   119.82200120     1.30103771
 C      2   1   3     3.156631868229   130.19646561   127.79996711
 C      7   2   1     1.407015500066    45.09646195   128.20427532
 C      8   7   2     1.391197095662   121.46540696   151.74553632
 C      9   8   7     1.393236418177   119.54837554   359.29366467
 C     10   9   8     1.394512452514   120.06646711     0.10662957
 C     11  10   9     1.393437865330   120.03103621     0.55405799
 C      1   2   3     2.919525749582   105.41042425   153.27465560
 C     13   1   2     1.398662766067    86.44779084   296.00254552
 C     14  13   1     1.395824038964   120.17063010   178.90683212
 C     15  14  13     1.393739592676   120.28794604   359.86229377
 C     16  15  14     1.396519480343   119.83839465   359.69216299
 C     17  16  15     1.391513754480   119.97761219     0.07796820
 C     13   1   2     2.880045260729    59.58642140   156.92238056
 C     19  13   1     1.401391615957   145.97732283   261.44780923
 C     20  19  13     1.393721651165   120.45987518   214.48989863
 C     21  20  19     1.394365836814   119.85737734     0.70545304
 C     22  21  20     1.395819105162   120.06419085     0.02446253
 C     23  22  21     1.393063597166   120.17181159   359.59016211
 C      7   2   1     2.885433282745   116.80093226   336.46433527
 C     25   7   2     1.405834757105    97.10468840   127.18966282
 C     26  25   7     1.390642875286   120.52756111   152.53495854
 C     27  26  25     1.397214162334   120.04216256     1.12142212
 C     28  27  26     1.392940418474   119.78322806   359.51147561
 C     29  28  27     1.396390866012   120.37175878   359.83160767
 C      7   2   1     2.891762531295    68.05189577   299.53488692
 C     31   7   2     1.399723651781   140.76113032    31.28792180
 C     32  31   7     1.394171218535   120.31409565   221.39111685
 C     33  32  31     1.393826385571   119.91082832     0.15253291
 C     34  33  32     1.396593891213   120.10102350     0.00000000
 C     35  34  33     1.392108008524   120.09042772     0.00000000
 H      3   2   1     1.092331039062   119.91372906   178.58202198
 H      4   3   2     1.092174979504   119.29824285   179.67987270
 H      5   4   3     1.091476189916   120.26657572   180.42350318
 H      6   5   4     1.093311085467   119.66358374   177.91891367
 H      9   8   7     1.091571930146   118.78838119   179.05252875
 H     10   9   8     1.091854548299   119.70917295   180.07680765
 H     11  10   9     1.091593751434   120.18875713   180.11346855
 H     12  11  10     1.093886206231   119.66052788   178.55253182
 H     15  14  13     1.092545282332   119.61973175   179.40065678
 H     16  15  14     1.092533739196   120.15021519   179.91399893
 H     17  16  15     1.092767414923   120.09905449   180.09666432
 H     18  17  16     1.096062497434   119.84171041   180.56418174
 H     21  20  19     1.092119466420   120.01192752   180.06283848
 H     22  21  20     1.092094458810   119.98345290   179.57211649
 H     23  22  21     1.092122648677   120.02678461   179.59242271
 H     24  23  22     1.094314805286   119.97891689   180.07127921
 H     27  26  25     1.092724871797   119.81481209   180.65211308
 H     28  27  26     1.092043165880   120.10975062   179.63784566
 H     29  28  27     1.092223907318   120.06206276   180.16182269
 H     30  29  28     1.093506805375   119.70731294   180.11724440
 H     33  32  31     1.092369007392   119.84616300   179.50784970
 H     34  33  32     1.092229882368   119.97899195   179.76671158
 H     35  34  33     1.092193278264   120.05760914   179.86885477
 H     36  35  34     1.094526167842   119.87484141   179.53537449
 O      2   1   3     1.373208679184   115.94202711   180.72129153
 P     19  13   1     1.821202448400    37.85943325   319.24111733
 P     25   7   2     1.821714923815    37.94697548     0.99860809
 H     20  19  13     1.095905811152   119.23244789    33.88932143
 H     14  13   1     1.093659693208   119.97629766   358.46800986
 H     32  31   7     1.095951464432   119.23633602    40.23849998
 H     26  25   7     1.096173767325   119.52362845   332.56612073
 Cu    62  19  13     2.256085587681   121.26939300   231.97151962
 C     68  62  19     2.947238423329   129.61873275    69.51048913
 C     69  68  62     1.398037120873   161.57464038   239.54914650
 C     70  69  68     1.390076765425   119.00786749    12.63664968
 C     71  70  69     1.394672139695   118.97777368   359.57339627
 C     72  71  70     1.390283409153   118.49606266     0.85005396
 H     70  69  68     1.091691447094   120.08795280   193.70155896
 H     72  71  70     1.090462462818   121.37132459   180.79842145
 H     73  72  71     1.095111372569   120.86135558   180.12990920
 N     73  72  71     1.337410655449   123.05156400     0.00000000
 H     71  70  69     1.091500195442   120.34863509   180.24395627
 C     69  68  62     1.456726341006    74.07887453    73.07543464
 C     79  69  68     1.382172451565   134.50860794   189.61451009
 H     80  79  69     1.084845637159   132.79354690     2.99478483
 N     79  69  68     1.365637781590   118.47762888     9.81894192
 N     82  79  69     1.296470417961   110.59832470   179.63969893
 N     83  82  79     1.345325832501   106.84698477     0.33442385
 C     84  83  82     1.421560529974   120.12927078   178.32291059
 C     85  84  83     1.395095252623   120.22292745   160.78589223
 C     85  84  83     1.396524858440   119.23478471   340.30386177
 C     86  85  84     1.390901154167   119.37992212   178.90513851
 H     86  85  84     1.091755330349   120.81436100   357.92004357
 C     87  85  84     1.388990601453   119.11820529   180.80914386
 H     87  85  84     1.090567714198   119.53796777     0.10723675
 C     88  86  85     1.401532025526   121.46700190     0.51970718
 H     88  86  85     1.092641110826   119.06110654   180.06890169
 H     90  87  85     1.093308482219   118.93862775   179.50075779
 C     92  88  86     1.493889899383   121.18415491   178.57716949
 H     95  92  88     1.101014033595   111.03105113   265.75809423
 H     95  92  88     1.096877625629   112.04321847    25.13622553
 H     95  92  88     1.097495117778   111.88817489   146.82064770

---------------------------
INTERNAL COORDINATES (A.U.)
---------------------------
 C      0   0   0     0.000000000000     0.00000000     0.00000000
 C      1   0   0     2.660440810087     0.00000000     0.00000000
 C      2   1   0     2.632921189057   121.32553849     0.00000000
 C      3   2   1     2.633776331177   119.21235521   358.95936015
 C      4   3   2     2.633724078432   120.51216567   359.48123525
 C      5   4   3     2.633887213343   119.82200120     1.30103771
 C      2   1   3     5.965169736562   130.19646561   127.79996711
 C      7   2   1     2.658873961307    45.09646195   128.20427532
 C      8   7   2     2.628981509108   121.46540696   151.74553632
 C      9   8   7     2.632835270159   119.54837554   359.29366467
 C     10   9   8     2.635246625595   120.06646711     0.10662957
 C     11  10   9     2.633215950110   120.03103621     0.55405799
 C      1   2   3     5.517104107642   105.41042425   153.27465560
 C     13   1   2     2.643089581579    86.44779084   296.00254552
 C     14  13   1     2.637725164786   120.17063010   178.90683212
 C     15  14  13     2.633786132162   120.28794604   359.86229377
 C     16  15  14     2.639039358535   119.83839465   359.69216299
 C     17  16  15     2.629579907552   119.97761219     0.07796820
 C     13   1   2     5.442496796076    59.58642140   156.92238056
 C     19  13   1     2.648246360532   145.97732283   261.44780923
 C     20  19  13     2.633752227618   120.45987518   214.48989863
 C     21  20  19     2.634969562075   119.85737734     0.70545304
 C     22  21  20     2.637715841250   120.06419085     0.02446253
 C     23  22  21     2.632508685779   120.17181159   359.59016211
 C      7   2   1     5.452678682090   116.80093226   336.46433527
 C     25   7   2     2.656642680477    97.10468840   127.18966282
 C     26  25   7     2.627934184380   120.52756111   152.53495854
 C     27  26  25     2.640352117248   120.04216256     1.12142212
 C     28  27  26     2.632275911786   119.78322806   359.51147561
 C     29  28  27     2.638796312672   120.37175878   359.83160767
 C      7   2   1     5.464639228482    68.05189577   299.53488692
 C     31   7   2     2.645094365038   140.76113032    31.28792180
 C     32  31   7     2.634601786825   120.31409565   221.39111685
 C     33  32  31     2.633950146963   119.91082832     0.15253291
 C     34  33  32     2.639179974700   120.10102350     0.00000000
 C     35  34  33     2.630702884948   120.09042772     0.00000000
 H      3   2   1     2.064206511409   119.91372906   178.58202198
 H      4   3   2     2.063911601583   119.29824285   179.67987270
 H      5   4   3     2.062591080637   120.26657572   180.42350318
 H      6   5   4     2.066058530714   119.66358374   177.91891367
 H      9   8   7     2.062772003452   118.78838119   179.05252875
 H     10   9   8     2.063306074361   119.70917295   180.07680765
 H     11  10   9     2.062813239710   120.18875713   180.11346855
 H     12  11  10     2.067145351450   119.66052788   178.55253182
 H     15  14  13     2.064611372515   119.61973175   179.40065678
 H     16  15  14     2.064589559149   120.15021519   179.91399893
 H     17  16  15     2.065031142278   120.09905449   180.09666432
 H     18  17  16     2.071257945812   119.84171041   180.56418174
 H     21  20  19     2.063806697058   120.01192752   180.06283848
 H     22  21  20     2.063759439524   119.98345290   179.57211649
 H     23  22  21     2.063812710653   120.02678461   179.59242271
 H     24  23  22     2.067955286287   119.97891689   180.07127921
 H     27  26  25     2.064950747421   119.81481209   180.65211308
 H     28  27  26     2.063662509934   120.10975062   179.63784566
 H     29  28  27     2.064004061752   120.06206276   180.16182269
 H     30  29  28     2.066428387737   119.70731294   180.11724440
 H     33  32  31     2.064278261154   119.84616300   179.50784970
 H     34  33  32     2.064015352960   119.97899195   179.76671158
 H     35  34  33     2.063946181229   120.05760914   179.86885477
 H     36  35  34     2.068354703631   119.87484141   179.53537449
 O      2   1   3     2.594988328382   115.94202711   180.72129153
 P     19  13   1     3.441573861903    37.85943325   319.24111733
 P     25   7   2     3.442542300087    37.94697548     0.99860809
 H     20  19  13     2.070961851650   119.23244789    33.88932143
 H     14  13   1     2.066717303871   119.97629766   358.46800986
 H     32  31   7     2.071048123846   119.23633602    40.23849998
 H     26  25   7     2.071468215433   119.52362845   332.56612073
 Cu    62  19  13     4.263383895403   121.26939300   231.97151962
 C     68  62  19     5.569473471461   129.61873275    69.51048913
 C     69  68  62     2.641907283505   161.57464038   239.54914650
 C     70  69  68     2.626864391780   119.00786749    12.63664968
 C     71  70  69     2.635548390633   118.97777368   359.57339627
 C     72  71  70     2.627254891833   118.49606266     0.85005396
 H     70  69  68     2.062997857753   120.08795280   193.70155896
 H     72  71  70     2.060675414048   121.37132459   180.79842145
 H     73  72  71     2.069460580297   120.86135558   180.12990920
 N     73  72  71     2.527339867387   123.05156400     0.00000000
 H     71  70  69     2.062636444507   120.34863509   180.24395627
 C     69  68  62     2.752813836570    74.07887453    73.07543464
 C     79  69  68     2.611927403308   134.50860794   189.61451009
 H     80  79  69     2.050061151811   132.79354690     2.99478483
 N     79  69  68     2.580681405340   118.47762888     9.81894192
 N     82  79  69     2.449974030677   110.59832470   179.63969893
 N     83  82  79     2.542297384317   106.84698477     0.33442385
 C     84  83  82     2.686360084442   120.12927078   178.32291059
 C     85  84  83     2.636347958191   120.22292745   160.78589223
 C     85  84  83     2.639049521665   119.23478471   340.30386177
 C     86  85  84     2.628422260730   119.37992212   178.90513851
 H     86  85  84     2.063118579609   120.81436100   357.92004357
 C     87  85  84     2.624811839337   119.11820529   180.80914386
 H     87  85  84     2.060874310330   119.53796777     0.10723675
 C     88  86  85     2.648511696163   121.46700190     0.51970718
 H     88  86  85     2.064792462125   119.06110654   180.06890169
 H     90  87  85     2.066053611286   118.93862775   179.50075779
 C     92  88  86     2.823042784065   121.18415491   178.57716949
 H     95  92  88     2.080614993099   111.03105113   265.75809423
 H     95  92  88     2.072798314865   112.04321847    25.13622553
 H     95  92  88     2.073965205916   111.88817489   146.82064770

---------------------
BASIS SET INFORMATION
---------------------
There are 6 groups of distinct atoms

 Group   1 Type C   : 7s4p1d contracted to 3s2p1d pattern {511/31/1}
 Group   2 Type H   : 4s1p contracted to 2s1p pattern {31/1}
 Group   3 Type O   : 7s4p1d contracted to 3s2p1d pattern {511/31/1}
 Group   4 Type P   : 10s7p1d contracted to 4s3p1d pattern {5311/511/1}
 Group   5 Type Cu  : 14s9p5d1f contracted to 5s3p2d1f pattern {63311/531/41/1}
 Group   6 Type N   : 7s4p1d contracted to 3s2p1d pattern {511/31/1}

Atom   0C    basis set group =>   1
Atom   1C    basis set group =>   1
Atom   2C    basis set group =>   1
Atom   3C    basis set group =>   1
Atom   4C    basis set group =>   1
Atom   5C    basis set group =>   1
Atom   6C    basis set group =>   1
Atom   7C    basis set group =>   1
Atom   8C    basis set group =>   1
Atom   9C    basis set group =>   1
Atom  10C    basis set group =>   1
Atom  11C    basis set group =>   1
Atom  12C    basis set group =>   1
Atom  13C    basis set group =>   1
Atom  14C    basis set group =>   1
Atom  15C    basis set group =>   1
Atom  16C    basis set group =>   1
Atom  17C    basis set group =>   1
Atom  18C    basis set group =>   1
Atom  19C    basis set group =>   1
Atom  20C    basis set group =>   1
Atom  21C    basis set group =>   1
Atom  22C    basis set group =>   1
Atom  23C    basis set group =>   1
Atom  24C    basis set group =>   1
Atom  25C    basis set group =>   1
Atom  26C    basis set group =>   1
Atom  27C    basis set group =>   1
Atom  28C    basis set group =>   1
Atom  29C    basis set group =>   1
Atom  30C    basis set group =>   1
Atom  31C    basis set group =>   1
Atom  32C    basis set group =>   1
Atom  33C    basis set group =>   1
Atom  34C    basis set group =>   1
Atom  35C    basis set group =>   1
Atom  36H    basis set group =>   2
Atom  37H    basis set group =>   2
Atom  38H    basis set group =>   2
Atom  39H    basis set group =>   2
Atom  40H    basis set group =>   2
Atom  41H    basis set group =>   2
Atom  42H    basis set group =>   2
Atom  43H    basis set group =>   2
Atom  44H    basis set group =>   2
Atom  45H    basis set group =>   2
Atom  46H    basis set group =>   2
Atom  47H    basis set group =>   2
Atom  48H    basis set group =>   2
Atom  49H    basis set group =>   2
Atom  50H    basis set group =>   2
Atom  51H    basis set group =>   2
Atom  52H    basis set group =>   2
Atom  53H    basis set group =>   2
Atom  54H    basis set group =>   2
Atom  55H    basis set group =>   2
Atom  56H    basis set group =>   2
Atom  57H    basis set group =>   2
Atom  58H    basis set group =>   2
Atom  59H    basis set group =>   2
Atom  60O    basis set group =>   3
Atom  61P    basis set group =>   4
Atom  62P    basis set group =>   4
Atom  63H    basis set group =>   2
Atom  64H    basis set group =>   2
Atom  65H    basis set group =>   2
Atom  66H    basis set group =>   2
Atom  67Cu   basis set group =>   5
Atom  68C    basis set group =>   1
Atom  69C    basis set group =>   1
Atom  70C    basis set group =>   1
Atom  71C    basis set group =>   1
Atom  72C    basis set group =>   1
Atom  73H    basis set group =>   2
Atom  74H    basis set group =>   2
Atom  75H    basis set group =>   2
Atom  76N    basis set group =>   6
Atom  77H    basis set group =>   2
Atom  78C    basis set group =>   1
Atom  79C    basis set group =>   1
Atom  80H    basis set group =>   2
Atom  81N    basis set group =>   6
Atom  82N    basis set group =>   6
Atom  83N    basis set group =>   6
Atom  84C    basis set group =>   1
Atom  85C    basis set group =>   1
Atom  86C    basis set group =>   1
Atom  87C    basis set group =>   1
Atom  88H    basis set group =>   2
Atom  89C    basis set group =>   1
Atom  90H    basis set group =>   2
Atom  91C    basis set group =>   1
Atom  92H    basis set group =>   2
Atom  93H    basis set group =>   2
Atom  94C    basis set group =>   1
Atom  95H    basis set group =>   2
Atom  96H    basis set group =>   2
Atom  97H    basis set group =>   2
---------------------------------
AUXILIARY/J BASIS SET INFORMATION
---------------------------------
There are 6 groups of distinct atoms

 Group   1 Type C   : 12s5p4d2f1g contracted to 6s4p3d1f1g pattern {711111/2111/211/2/1}
 Group   2 Type H   : 5s2p1d contracted to 3s1p1d pattern {311/2/1}
 Group   3 Type O   : 12s5p4d2f1g contracted to 6s4p3d1f1g pattern {711111/2111/211/2/1}
 Group   4 Type P   : 14s5p5d2f1g contracted to 8s4p3d1f1g pattern {71111111/2111/311/2/1}
 Group   5 Type Cu  : 19s5p5d3f3g contracted to 8s5p4d3f3g pattern {121111111/11111/2111/111/111}
 Group   6 Type N   : 12s5p4d2f1g contracted to 6s4p3d1f1g pattern {711111/2111/211/2/1}

Atom   0C    basis set group =>   1
Atom   1C    basis set group =>   1
Atom   2C    basis set group =>   1
Atom   3C    basis set group =>   1
Atom   4C    basis set group =>   1
Atom   5C    basis set group =>   1
Atom   6C    basis set group =>   1
Atom   7C    basis set group =>   1
Atom   8C    basis set group =>   1
Atom   9C    basis set group =>   1
Atom  10C    basis set group =>   1
Atom  11C    basis set group =>   1
Atom  12C    basis set group =>   1
Atom  13C    basis set group =>   1
Atom  14C    basis set group =>   1
Atom  15C    basis set group =>   1
Atom  16C    basis set group =>   1
Atom  17C    basis set group =>   1
Atom  18C    basis set group =>   1
Atom  19C    basis set group =>   1
Atom  20C    basis set group =>   1
Atom  21C    basis set group =>   1
Atom  22C    basis set group =>   1
Atom  23C    basis set group =>   1
Atom  24C    basis set group =>   1
Atom  25C    basis set group =>   1
Atom  26C    basis set group =>   1
Atom  27C    basis set group =>   1
Atom  28C    basis set group =>   1
Atom  29C    basis set group =>   1
Atom  30C    basis set group =>   1
Atom  31C    basis set group =>   1
Atom  32C    basis set group =>   1
Atom  33C    basis set group =>   1
Atom  34C    basis set group =>   1
Atom  35C    basis set group =>   1
Atom  36H    basis set group =>   2
Atom  37H    basis set group =>   2
Atom  38H    basis set group =>   2
Atom  39H    basis set group =>   2
Atom  40H    basis set group =>   2
Atom  41H    basis set group =>   2
Atom  42H    basis set group =>   2
Atom  43H    basis set group =>   2
Atom  44H    basis set group =>   2
Atom  45H    basis set group =>   2
Atom  46H    basis set group =>   2
Atom  47H    basis set group =>   2
Atom  48H    basis set group =>   2
Atom  49H    basis set group =>   2
Atom  50H    basis set group =>   2
Atom  51H    basis set group =>   2
Atom  52H    basis set group =>   2
Atom  53H    basis set group =>   2
Atom  54H    basis set group =>   2
Atom  55H    basis set group =>   2
Atom  56H    basis set group =>   2
Atom  57H    basis set group =>   2
Atom  58H    basis set group =>   2
Atom  59H    basis set group =>   2
Atom  60O    basis set group =>   3
Atom  61P    basis set group =>   4
Atom  62P    basis set group =>   4
Atom  63H    basis set group =>   2
Atom  64H    basis set group =>   2
Atom  65H    basis set group =>   2
Atom  66H    basis set group =>   2
Atom  67Cu   basis set group =>   5
Atom  68C    basis set group =>   1
Atom  69C    basis set group =>   1
Atom  70C    basis set group =>   1
Atom  71C    basis set group =>   1
Atom  72C    basis set group =>   1
Atom  73H    basis set group =>   2
Atom  74H    basis set group =>   2
Atom  75H    basis set group =>   2
Atom  76N    basis set group =>   6
Atom  77H    basis set group =>   2
Atom  78C    basis set group =>   1
Atom  79C    basis set group =>   1
Atom  80H    basis set group =>   2
Atom  81N    basis set group =>   6
Atom  82N    basis set group =>   6
Atom  83N    basis set group =>   6
Atom  84C    basis set group =>   1
Atom  85C    basis set group =>   1
Atom  86C    basis set group =>   1
Atom  87C    basis set group =>   1
Atom  88H    basis set group =>   2
Atom  89C    basis set group =>   1
Atom  90H    basis set group =>   2
Atom  91C    basis set group =>   1
Atom  92H    basis set group =>   2
Atom  93H    basis set group =>   2
Atom  94C    basis set group =>   1
Atom  95H    basis set group =>   2
Atom  96H    basis set group =>   2
Atom  97H    basis set group =>   2
---------------------------------
AUXILIARY/C BASIS SET INFORMATION
---------------------------------
There are 6 groups of distinct atoms

 Group   1 Type C   : 8s6p5d3f contracted to 6s5p4d1f pattern {311111/21111/2111/3}
 Group   2 Type H   : 4s3p2d contracted to 3s2p1d pattern {211/21/2}
 Group   3 Type O   : 8s6p5d3f contracted to 6s5p4d1f pattern {311111/21111/2111/3}
 Group   4 Type P   : 10s7p7d3f contracted to 8s5p5d2f pattern {31111111/31111/31111/12}
 Group   5 Type Cu  : 9s9p6d4f3g2h contracted to 9s9p6d4f3g2h pattern {111111111/111111111/111111/1111/111/11}
 Group   6 Type N   : 8s6p5d3f contracted to 6s5p4d1f pattern {311111/21111/2111/3}

Atom   0C    basis set group =>   1
Atom   1C    basis set group =>   1
Atom   2C    basis set group =>   1
Atom   3C    basis set group =>   1
Atom   4C    basis set group =>   1
Atom   5C    basis set group =>   1
Atom   6C    basis set group =>   1
Atom   7C    basis set group =>   1
Atom   8C    basis set group =>   1
Atom   9C    basis set group =>   1
Atom  10C    basis set group =>   1
Atom  11C    basis set group =>   1
Atom  12C    basis set group =>   1
Atom  13C    basis set group =>   1
Atom  14C    basis set group =>   1
Atom  15C    basis set group =>   1
Atom  16C    basis set group =>   1
Atom  17C    basis set group =>   1
Atom  18C    basis set group =>   1
Atom  19C    basis set group =>   1
Atom  20C    basis set group =>   1
Atom  21C    basis set group =>   1
Atom  22C    basis set group =>   1
Atom  23C    basis set group =>   1
Atom  24C    basis set group =>   1
Atom  25C    basis set group =>   1
Atom  26C    basis set group =>   1
Atom  27C    basis set group =>   1
Atom  28C    basis set group =>   1
Atom  29C    basis set group =>   1
Atom  30C    basis set group =>   1
Atom  31C    basis set group =>   1
Atom  32C    basis set group =>   1
Atom  33C    basis set group =>   1
Atom  34C    basis set group =>   1
Atom  35C    basis set group =>   1
Atom  36H    basis set group =>   2
Atom  37H    basis set group =>   2
Atom  38H    basis set group =>   2
Atom  39H    basis set group =>   2
Atom  40H    basis set group =>   2
Atom  41H    basis set group =>   2
Atom  42H    basis set group =>   2
Atom  43H    basis set group =>   2
Atom  44H    basis set group =>   2
Atom  45H    basis set group =>   2
Atom  46H    basis set group =>   2
Atom  47H    basis set group =>   2
Atom  48H    basis set group =>   2
Atom  49H    basis set group =>   2
Atom  50H    basis set group =>   2
Atom  51H    basis set group =>   2
Atom  52H    basis set group =>   2
Atom  53H    basis set group =>   2
Atom  54H    basis set group =>   2
Atom  55H    basis set group =>   2
Atom  56H    basis set group =>   2
Atom  57H    basis set group =>   2
Atom  58H    basis set group =>   2
Atom  59H    basis set group =>   2
Atom  60O    basis set group =>   3
Atom  61P    basis set group =>   4
Atom  62P    basis set group =>   4
Atom  63H    basis set group =>   2
Atom  64H    basis set group =>   2
Atom  65H    basis set group =>   2
Atom  66H    basis set group =>   2
Atom  67Cu   basis set group =>   5
Atom  68C    basis set group =>   1
Atom  69C    basis set group =>   1
Atom  70C    basis set group =>   1
Atom  71C    basis set group =>   1
Atom  72C    basis set group =>   1
Atom  73H    basis set group =>   2
Atom  74H    basis set group =>   2
Atom  75H    basis set group =>   2
Atom  76N    basis set group =>   6
Atom  77H    basis set group =>   2
Atom  78C    basis set group =>   1
Atom  79C    basis set group =>   1
Atom  80H    basis set group =>   2
Atom  81N    basis set group =>   6
Atom  82N    basis set group =>   6
Atom  83N    basis set group =>   6
Atom  84C    basis set group =>   1
Atom  85C    basis set group =>   1
Atom  86C    basis set group =>   1
Atom  87C    basis set group =>   1
Atom  88H    basis set group =>   2
Atom  89C    basis set group =>   1
Atom  90H    basis set group =>   2
Atom  91C    basis set group =>   1
Atom  92H    basis set group =>   2
Atom  93H    basis set group =>   2
Atom  94C    basis set group =>   1
Atom  95H    basis set group =>   2
Atom  96H    basis set group =>   2
Atom  97H    basis set group =>   2


           ************************************************************
           *        Program running with 8 parallel MPI-processes     *
           *              working on a common directory               *
           ************************************************************
------------------------------------------------------------------------------
                           ORCA GTO INTEGRAL CALCULATION
                           -- RI-GTO INTEGRALS CHOSEN --
------------------------------------------------------------------------------
------------------------------------------------------------------------------
                   ___                                                        
                  /   \      - P O W E R E D   B Y -                         
                 /     \                                                     
                 |  |  |   _    _      __       _____    __    __             
                 |  |  |  | |  | |    /  \     |  _  \  |  |  /  |          
                  \  \/   | |  | |   /    \    | | | |  |  | /  /          
                 / \  \   | |__| |  /  /\  \   | |_| |  |  |/  /          
                |  |  |   |  __  | /  /__\  \  |    /   |      \           
                |  |  |   | |  | | |   __   |  |    \   |  |\   \          
                \     /   | |  | | |  |  |  |  | |\  \  |  | \   \       
                 \___/    |_|  |_| |__|  |__|  |_| \__\ |__|  \__/        
                                                                              
                      - O R C A' S   B I G   F R I E N D -                    
                                      &                                       
                       - I N T E G R A L  F E E D E R -                       
                                                                              
 v1 FN, 2020, v2 2021                                                         
------------------------------------------------------------------------------


Reading SHARK input file Cu50_DPEPhos-pytri_SOS-wPBEPP86_def2SVP.SHARKINP.tmp ... ok
----------------------
SHARK INTEGRAL PACKAGE
----------------------

Number of atoms                             ...     98
Number of basis functions                   ...   1037
Number of shells                            ...    477
Maximum angular momentum                    ...      3
Integral batch strategy                     ... SHARK/LIBINT Hybrid
RI-J (if used) integral strategy            ... SPLIT-RIJ (Revised 2003 algorithm where possible)
Printlevel                                  ...      1
Contraction scheme used                     ... SEGMENTED contraction
Coulomb Range Separation                    ... NOT USED
Exchange Range Separation                   ... Long Range
   Mu parameter                             ...  0.180000
   Scaling (regular/separated)              ...  0.700000  0.300000
Finite Nucleus Model                        ... NOT USED
Auxiliary Coulomb fitting basis             ... AVAILABLE
   # of basis functions in Aux-J            ...   3328
   # of shells in Aux-J                     ...   1082
   Maximum angular momentum in Aux-J        ...      4
Auxiliary J/K fitting basis                 ... NOT available
Auxiliary Correlation fitting basis         ... AVAILABLE
   # of basis functions in Aux-C            ...   3467
   # of shells in Aux-C                     ...   1193
   Maximum angular momentum in Aux-C        ...      5
Auxiliary 'external' fitting basis          ... NOT available
Integral threshold                          ...     2.500000e-11
Primitive cut-off                           ...     2.500000e-12
Primitive pair pre-selection threshold      ...     2.500000e-12

Calculating pre-screening integrals         ... done (  0.1 sec) Dimension = 477
Organizing shell pair data                  ... done (  0.3 sec)
Shell pair information
Total number of shell pairs                 ...    114003
Shell pairs after pre-screening             ...     61052
Total number of primitive shell pairs       ...    429196
Primitive shell pairs kept                  ...    128909
          la=0 lb=0:  18522 shell pairs
          la=1 lb=0:  23027 shell pairs
          la=1 lb=1:   7253 shell pairs
          la=2 lb=0:   7027 shell pairs
          la=2 lb=1:   4391 shell pairs
          la=2 lb=2:    579 shell pairs
          la=3 lb=0:    139 shell pairs
          la=3 lb=1:     90 shell pairs
          la=3 lb=2:     23 shell pairs
          la=3 lb=3:      1 shell pairs

Calculating one electron integrals          ... done (  0.1 sec)
Calculating RI/J V-Matrix + Cholesky decomp.... done (  0.6 sec)
Calculating RI/C V-Matrix + Cholesky decomp.... done (  0.6 sec)
Calculating Nuclear repulsion               ... done (  0.0 sec) ENN=  10032.809737305142 Eh

SHARK setup successfully completed in   2.1 seconds

Maximum memory used throughout the entire GTOINT-calculation: 111.9 MB


           ************************************************************
           *        Program running with 8 parallel MPI-processes     *
           *              working on a common directory               *
           ************************************************************
-------------------------------------------------------------------------------
                                 ORCA SCF
-------------------------------------------------------------------------------

------------
SCF SETTINGS
------------
Hamiltonian:
 Density Functional     Method          .... DFT(GTOs)
 Exchange Functional    Exchange        .... LC-PBE
 Correlation Functional Correlation     .... P86
 LDA part of GGA corr.  LDAOpt          .... VWN-5
 Gradients option       PostSCFGGA      .... off
 Hybrid DFT is turned on
   Fraction HF Exchange ScalHFX         ....  0.700000
   Scaling of DF-GGA-X  ScalDFX         ....  0.000000
   Scaling of DF-GGA-C  ScalDFC         ....  0.680000
   Scaling of DF-LDA-C  ScalLDAC        ....  0.680000
   Perturbative correction              ....  0.480000
   Density functional embedding theory  .... OFF
 Long-range corrected/Screened/Range-Separated Hybrid DFT is turned on
   Amount of maximum screened exact exchange              ....  0.300000
   Range separation parameter mu (erf(mu*r12)/r12)        ....  0.180000
 RI-approximation to the Coulomb term is turned on
   Number of AuxJ basis functions       .... 3328
   RIJ-COSX (HFX calculated with COS-X)).... on


General Settings:
 Integral files         IntName         .... Cu50_DPEPhos-pytri_SOS-wPBEPP86_def2SVP
 Hartree-Fock type      HFTyp           .... RHF
 Total Charge           Charge          ....    1
 Multiplicity           Mult            ....    1
 Number of Electrons    NEL             ....  434
 Basis Dimension        Dim             .... 1037
 Nuclear Repulsion      ENuc            ....  10032.8097373051 Eh

Convergence Acceleration:
 DIIS                   CNVDIIS         .... on
   Start iteration      DIISMaxIt       ....    12
   Startup error        DIISStart       ....  0.200000
   # of expansion vecs  DIISMaxEq       ....     5
   Bias factor          DIISBfac        ....   1.050
   Max. coefficient     DIISMaxC        ....  10.000
 Trust-Rad. Augm. Hess. CNVTRAH         .... auto
   Auto Start mean grad. ratio tolernc. ....  1.125000
   Auto Start start iteration           ....    20
   Auto Start num. interpolation iter.  ....    10
   Max. Number of Micro iterations      ....    16
   Max. Number of Macro iterations      .... Maxiter - #DIIS iter
   Number of Davidson start vectors     ....     2
   Converg. threshold I  (grad. norm)   ....   1.000e-05
   Converg. threshold II (energy diff.) ....   1.000e-08
   Grad. Scal. Fac. for Micro threshold ....   0.100
   Minimum threshold for Micro iter.    ....   0.010
   NR start threshold (gradient norm)   ....   0.001
   Initial trust radius                 ....   0.400
   Minimum AH scaling param. (alpha)    ....   1.000
   Maximum AH scaling param. (alpha)    .... 1000.000
   Orbital update algorithm             .... Taylor
   White noise on init. David. guess    .... on
   Maximum white noise                  ....   0.010
   Quad. conv. algorithm                .... NR
 SOSCF                  CNVSOSCF        .... off
 Level Shifting         CNVShift        .... on
   Level shift para.    LevelShift      ....    0.2500
   Turn off err/grad.   ShiftErr        ....    0.0010
 Zerner damping         CNVZerner       .... off
 Static damping         CNVDamp         .... on
   Fraction old density DampFac         ....    0.7000
   Max. Damping (<1)    DampMax         ....    0.9800
   Min. Damping (>=0)   DampMin         ....    0.0000
   Turn off err/grad.   DampErr         ....    0.1000
 Fernandez-Rico         CNVRico         .... off

SCF Procedure:
 Maximum # iterations   MaxIter         ....   125
 SCF integral mode      SCFMode         .... Direct
   Integral package                     .... SHARK and LIBINT hybrid scheme
 Reset frequency        DirectResetFreq ....    20
 Integral Threshold     Thresh          ....  2.500e-11 Eh
 Primitive CutOff       TCut            ....  2.500e-12 Eh

Convergence Tolerance:
 Convergence Check Mode ConvCheckMode   .... Total+1el-Energy
 Convergence forced     ConvForced      .... 1
 Energy Change          TolE            ....  1.000e-08 Eh
 1-El. energy change                    ....  1.000e-05 Eh
 DIIS Error             TolErr          ....  5.000e-07


Diagonalization of the overlap matrix:
Smallest eigenvalue                        ... 2.116e-04
Time for diagonalization                   ...    0.137 sec
Threshold for overlap eigenvalues          ... 1.000e-08
Number of eigenvalues below threshold      ... 0
Time for construction of square roots      ...    0.110 sec
Total time needed                          ...    0.251 sec

Time for model grid setup =    1.324 sec

------------------------------
INITIAL GUESS: MODEL POTENTIAL
------------------------------
Loading Hartree-Fock densities                     ... done
Calculating cut-offs                               ... done
Initializing the effective Hamiltonian             ... done
Setting up the integral package (SHARK)            ... done
Starting the Coulomb interaction                   ... done (   1.1 sec)
Reading the grid                                   ... done
Mapping shells                                     ... done
Starting the XC term evaluation                    ... done (   0.4 sec)
  promolecular density results
     # of electrons  =    434.973784443
     EX              =   -398.656366730
     EC              =     -7.520816428
     EX+EC           =   -406.177183158
Transforming the Hamiltonian                       ... done (   0.0 sec)
Diagonalizing the Hamiltonian                      ... done (   0.1 sec)
Back transforming the eigenvectors                 ... done (   0.0 sec)
Now organizing SCF variables                       ... done
                      ------------------
                      INITIAL GUESS DONE (   3.1 sec)
                      ------------------
-------------------
DFT GRID GENERATION
-------------------

General Integration Accuracy     IntAcc      ... 4.388
Radial Grid Type                 RadialGrid  ... OptM3 with GC (2021)
Angular Grid (max. ang.)         AngularGrid ... 4 (Lebedev-302)
Angular grid pruning method      GridPruning ... 4 (adaptive)
Weight generation scheme         WeightScheme... Becke
Basis function cutoff            BFCut       ... 1.0000e-11
Integration weight cutoff        WCut        ... 1.0000e-14
Angular grids for H and He will be reduced by one unit
Partially contracted basis set               ... off
Rotationally invariant grid construction     ... off

Total number of grid points                  ...   476025
Total number of batches                      ...     7488
Average number of points per batch           ...       63
Average number of grid points per atom       ...     4857
Time for grid setup =    4.778 sec

--------------------
COSX GRID GENERATION
--------------------

GRIDX 1
-------
General Integration Accuracy     IntAcc      ... 3.816
Radial Grid Type                 RadialGrid  ... OptM3 with GC (2021)
Angular Grid (max. ang.)         AngularGrid ... 1 (Lebedev-50)
Angular grid pruning method      GridPruning ... 4 (adaptive)
Weight generation scheme         WeightScheme... Becke
Basis function cutoff            BFCut       ... 1.0000e-11
Integration weight cutoff        WCut        ... 1.0000e-14
Angular grids for H and He will be reduced by one unit
Partially contracted basis set               ... on
Rotationally invariant grid construction     ... off

Total number of grid points                  ...    59978
Total number of batches                      ...      977
Average number of points per batch           ...       61
Average number of grid points per atom       ...      612
UseSFitting                                  ... on

GRIDX 2
-------
General Integration Accuracy     IntAcc      ... 4.020
Radial Grid Type                 RadialGrid  ... OptM3 with GC (2021)
Angular Grid (max. ang.)         AngularGrid ... 2 (Lebedev-110)
Angular grid pruning method      GridPruning ... 4 (adaptive)
Weight generation scheme         WeightScheme... Becke
Basis function cutoff            BFCut       ... 1.0000e-11
Integration weight cutoff        WCut        ... 1.0000e-14
Angular grids for H and He will be reduced by one unit
Partially contracted basis set               ... on
Rotationally invariant grid construction     ... off

Total number of grid points                  ...   128778
Total number of batches                      ...     2062
Average number of points per batch           ...       62
Average number of grid points per atom       ...     1314
UseSFitting                                  ... on

GRIDX 3
-------
General Integration Accuracy     IntAcc      ... 4.338
Radial Grid Type                 RadialGrid  ... OptM3 with GC (2021)
Angular Grid (max. ang.)         AngularGrid ... 3 (Lebedev-194)
Angular grid pruning method      GridPruning ... 4 (adaptive)
Weight generation scheme         WeightScheme... Becke
Basis function cutoff            BFCut       ... 1.0000e-11
Integration weight cutoff        WCut        ... 1.0000e-14
Angular grids for H and He will be reduced by one unit
Partially contracted basis set               ... on
Rotationally invariant grid construction     ... off

Total number of grid points                  ...   280407
Total number of batches                      ...     4428
Average number of points per batch           ...       63
Average number of grid points per atom       ...     2861
UseSFitting                                  ... on

Time for X-Grid setup             =    5.143 sec


--------------------
CPCM SOLVATION MODEL
--------------------
CPCM parameters:
  Epsilon                                         ...       8.9300
  Refrac                                          ...       1.4242
  Rsolv                                           ...       1.3000
  Surface type                                    ... GAUSSIAN VDW
  Epsilon function type                           ...         CPCM
Solvent:                                     ... CH2CL2
SMD-CDS solvent descriptors:
  Soln                                       ...    1.4242
  Soln25                                     ...    1.4212
  Sola                                       ...    0.1000
  Solb                                       ...    0.0500
  Solg                                       ...   39.1500
  Solc                                       ...    0.0000
  Solh                                       ...    0.6670
Radii:
 Radius for C  used is    3.4960 Bohr (=   1.8500 Ang.)
 Radius for H  used is    2.2677 Bohr (=   1.2000 Ang.)
 Radius for O  used is    3.9949 Bohr (=   2.1140 Ang.)
 Radius for P  used is    4.0062 Bohr (=   2.1200 Ang.)
 Radius for Cu used is    3.5149 Bohr (=   1.8600 Ang.)
 Radius for N  used is    3.5716 Bohr (=   1.8900 Ang.)
Calculating surface                               ...        done! (  0.0s)
GEPOL surface points                              ...         5611
GEPOL Volume                                      ...    5401.1355
GEPOL Surface-area                                ...    2743.9246
Calculating surface distance matrix               ...        done! (  0.2s)
Performing Cholesky decomposition & store         ...        done! (  1.0s)
Overall time for CPCM initialization              ...                 1.2s
--------------
SCF ITERATIONS
--------------
ITER       Energy         Delta-E        Max-DP      RMS-DP      [F,P]     Damp
               ***  Starting incremental Fock matrix formation  ***
  0  -4536.3114848986   0.000000000000 0.12910845  0.00112159  0.1535049 0.7000
  1  -4536.6816464515  -0.370161552835 0.12187978  0.00089048  0.0986915 0.7000
                               ***Turning on DIIS***
  2  -4536.9037668261  -0.222120374633 0.33483879  0.00211218  0.0569247 0.0000
  3  -4537.3290942798  -0.425327453643 0.04870491  0.00032001  0.0272458 0.0000
  4  -4537.3603218808  -0.031227601007 0.01867178  0.00012666  0.0111711 0.0000
  5  -4537.3620299504  -0.001708069593 0.01606173  0.00006632  0.0152769 0.0000
  6  -4537.3625775090  -0.000547558606 0.00405067  0.00003201  0.0078779 0.0000
  7  -4537.3627470360  -0.000169527034 0.00285171  0.00001456  0.0022065 0.0000
  8  -4537.3627898895  -0.000042853472 0.00143522  0.00001210  0.0004338 0.0000
               *** Restarting incremental Fock matrix formation ***
                                   *** Resetting DIIS ***
  9  -4537.3629963396  -0.000206450081 0.00183671  0.00002114  0.0003873 0.0000
 10  -4537.3630010478  -0.000004708260 0.00035747  0.00000336  0.0004563 0.0000
 11  -4537.3630017629  -0.000000715044 0.00024472  0.00000233  0.0004116 0.0000
 12  -4537.3630022063  -0.000000443451 0.00012185  0.00000072  0.0001934 0.0000
 13  -4537.3630022724  -0.000000066053 0.00004319  0.00000041  0.0000829 0.0000
 14  -4537.3630023217  -0.000000049323 0.00001608  0.00000014  0.0000187 0.0000
 15  -4537.3630023942  -0.000000072534 0.00000572  0.00000008  0.0000044 0.0000
 16  -4537.3630024691  -0.000000074927 0.00000266  0.00000004  0.0000023 0.0000
 17  -4537.3630024962  -0.000000027072 0.00000134  0.00000002  0.0000018 0.0000
 18  -4537.3630025214  -0.000000025153 0.00000132  0.00000001  0.0000020 0.0000
 19  -4537.3630026618  -0.000000140411 0.00000070  0.00000001  0.0000011 0.0000
                            ***DIIS convergence achieved***

               *****************************************************
               *                     SUCCESS                       *
               *           SCF CONVERGED AFTER  20 CYCLES          *
               *****************************************************

Old exchange energy                            =   -305.676095484 Eh
New exchange energy                            =   -305.676345331 Eh
Exchange energy change after final integration =     -0.000249848 Eh
Total energy after final integration           =  -4537.363252407 Eh
Final COS-X integration done in                =   116.191 sec

SMD CDS free energy correction energy :               -17.37092     Kcal/mol
Total Energy after SMD CDS correction =             -4537.390934725 Eh

----------------
TOTAL SCF ENERGY
----------------

Total Energy       :        -4537.39093472 Eh         -123468.68436 eV

Components:
Nuclear Repulsion  :        10032.80973731 Eh          273006.63234 eV
Electronic Energy  :       -14570.20067203 Eh         -396475.31670 eV
One Electron Energy:       -26203.60751882 Eh         -713036.41066 eV
Two Electron Energy:        11633.40684679 Eh          316561.09396 eV
Max COSX asymmetry :            0.00002615 Eh               0.00071 eV
CPCM Dielectric    :           -0.08364305 Eh              -2.27604 eV
SMD CDS (Gcds)     :           -0.02768232 Eh              -0.75327 eV

Virial components:
Potential Energy   :        -9051.20221535 Eh         -246295.73371 eV
Kinetic Energy     :         4513.81128063 Eh          122827.04935 eV
Virial Ratio       :            2.00522389


DFT components:
N(Alpha)           :      216.999894895011 electrons
N(Beta)            :      216.999894895011 electrons
N(Total)           :      433.999789790022 electrons
E(X)               :     -111.069300947330 Eh       
E(C)               :      -11.400682071458 Eh       
E(XC)              :     -122.469983018788 Eh       
DFET-embed. en.    :        0.000000000000 Eh       
CPCM Solvation Model Properties:
Surface-charge          :           -1.07394339
Charge-correction       :            0.00517393 Eh               0.14079 eV
Free-energy (cav+disp)  :           -0.02768232 Eh              -0.75327 eV

---------------
SCF CONVERGENCE
---------------

  Last Energy change         ...    1.0221e-07  Tolerance :   1.0000e-08
  Last MAX-Density change    ...    0.0000e+00  Tolerance :   1.0000e-07
  Last RMS-Density change    ...    0.0000e+00  Tolerance :   5.0000e-09
  Last DIIS Error            ...    4.4893e-07  Tolerance :   5.0000e-07

             **** THE GBW FILE WAS UPDATED (Cu50_DPEPhos-pytri_SOS-wPBEPP86_def2SVP.gbw) ****
             **** DENSITY Cu50_DPEPhos-pytri_SOS-wPBEPP86_def2SVP.scfp WAS UPDATED ****
             **** ENERGY FILE WAS UPDATED (Cu50_DPEPhos-pytri_SOS-wPBEPP86_def2SVP.en.tmp) ****
             **** THE GBW FILE WAS UPDATED (Cu50_DPEPhos-pytri_SOS-wPBEPP86_def2SVP.gbw) ****
             **** DENSITY Cu50_DPEPhos-pytri_SOS-wPBEPP86_def2SVP.scfp WAS UPDATED ****
----------------
ORBITAL ENERGIES
----------------

  NO   OCC          E(Eh)            E(eV) 
   0   2.0000    -326.666448     -8889.0459 
   1   2.0000     -78.912935     -2147.3301 
   2   2.0000     -78.912452     -2147.3170 
   3   2.0000     -40.121764     -1091.7687 
   4   2.0000     -35.075587      -954.4552 
   5   2.0000     -35.075313      -954.4478 
   6   2.0000     -35.075033      -954.4402 
   7   2.0000     -20.122507      -547.5613 
   8   2.0000     -15.271604      -415.5615 
   9   2.0000     -15.236074      -414.5947 
  10   2.0000     -15.210166      -413.8897 
  11   2.0000     -15.182436      -413.1351 
  12   2.0000     -10.965894      -298.3971 
  13   2.0000     -10.963302      -298.3266 
  14   2.0000     -10.957337      -298.1643 
  15   2.0000     -10.953277      -298.0538 
  16   2.0000     -10.946226      -297.8620 
  17   2.0000     -10.938960      -297.6642 
  18   2.0000     -10.936104      -297.5865 
  19   2.0000     -10.916283      -297.0472 
  20   2.0000     -10.905774      -296.7612 
  21   2.0000     -10.905583      -296.7560 
  22   2.0000     -10.901444      -296.6434 
  23   2.0000     -10.900565      -296.6194 
  24   2.0000     -10.900560      -296.6193 
  25   2.0000     -10.900477      -296.6171 
  26   2.0000     -10.899842      -296.5998 
  27   2.0000     -10.899474      -296.5898 
  28   2.0000     -10.899404      -296.5879 
  29   2.0000     -10.899389      -296.5875 
  30   2.0000     -10.898323      -296.5585 
  31   2.0000     -10.898176      -296.5544 
  32   2.0000     -10.897244      -296.5291 
  33   2.0000     -10.897123      -296.5258 
  34   2.0000     -10.896646      -296.5128 
  35   2.0000     -10.895938      -296.4935 
  36   2.0000     -10.895787      -296.4894 
  37   2.0000     -10.895436      -296.4799 
  38   2.0000     -10.895048      -296.4693 
  39   2.0000     -10.894993      -296.4678 
  40   2.0000     -10.894292      -296.4488 
  41   2.0000     -10.893251      -296.4204 
  42   2.0000     -10.893026      -296.4143 
  43   2.0000     -10.892520      -296.4006 
  44   2.0000     -10.892015      -296.3868 
  45   2.0000     -10.891559      -296.3744 
  46   2.0000     -10.891030      -296.3600 
  47   2.0000     -10.890553      -296.3470 
  48   2.0000     -10.890222      -296.3380 
  49   2.0000     -10.890028      -296.3327 
  50   2.0000     -10.889944      -296.3304 
  51   2.0000     -10.889087      -296.3071 
  52   2.0000     -10.889062      -296.3065 
  53   2.0000     -10.888804      -296.2994 
  54   2.0000     -10.888713      -296.2969 
  55   2.0000     -10.888250      -296.2844 
  56   2.0000     -10.888143      -296.2814 
  57   2.0000     -10.888024      -296.2782 
  58   2.0000     -10.887290      -296.2582 
  59   2.0000     -10.886917      -296.2481 
  60   2.0000     -10.885201      -296.2014 
  61   2.0000     -10.868709      -295.7526 
  62   2.0000      -7.216088      -196.3597 
  63   2.0000      -7.215428      -196.3418 
  64   2.0000      -5.209200      -141.7495 
  65   2.0000      -5.209032      -141.7450 
  66   2.0000      -5.208559      -141.7321 
  67   2.0000      -5.208440      -141.7289 
  68   2.0000      -5.208244      -141.7235 
  69   2.0000      -5.207598      -141.7059 
  70   2.0000      -4.783811      -130.1741 
  71   2.0000      -3.164049       -86.0982 
  72   2.0000      -3.161732       -86.0351 
  73   2.0000      -3.159227       -85.9669 
  74   2.0000      -1.396721       -38.0067 
  75   2.0000      -1.359650       -36.9980 
  76   2.0000      -1.221899       -33.2496 
[...]
   213a -> 226a  :     0.010268 
   214a -> 218a  :     0.013661 
   214a -> 219a  :     0.013986 
   215a -> 219a  :     0.012608 
   216a -> 220a  :     0.019073 
   216a -> 223a  :     0.048495 
   216a -> 229a  :     0.027162 
   216a -> 234a  :     0.013676 

STATE 38:  E=   0.205545 au      5.593 eV    45111.8 cm**-1 <S**2> =   0.000000
   185a -> 223a  :     0.011831 
   198a -> 217a  :     0.016839 
   198a -> 218a  :     0.012240 
   198a -> 223a  :     0.011356 
   199a -> 218a  :     0.013256 
   199a -> 223a  :     0.029696 
   200a -> 223a  :     0.020123 
   204a -> 225a  :     0.012073 
   207a -> 222a  :     0.013651 
   207a -> 224a  :     0.019337 
   207a -> 229a  :     0.010403 
   208a -> 225a  :     0.016430 
   213a -> 220a  :     0.014833 
   213a -> 224a  :     0.011181 
   214a -> 217a  :     0.021547 
   214a -> 219a  :     0.021321 
   214a -> 226a  :     0.011938 
   215a -> 218a  :     0.011915 
   215a -> 219a  :     0.016271 
   216a -> 223a  :     0.040131 
   216a -> 225a  :     0.035822 
   216a -> 226a  :     0.016115 
   216a -> 229a  :     0.018592 
   216a -> 231a  :     0.019404 

STATE 39:  E=   0.217821 au      5.927 eV    47806.1 cm**-1 <S**2> =   0.000000
   198a -> 223a  :     0.021568 
   199a -> 223a  :     0.035193 
   200a -> 223a  :     0.013300 
   201a -> 219a  :     0.013670 
   204a -> 224a  :     0.010334 
   208a -> 221a  :     0.010263 
   208a -> 225a  :     0.019359 
   209a -> 221a  :     0.014165 
   209a -> 228a  :     0.011840 
   211a -> 220a  :     0.010511 
   213a -> 219a  :     0.016308 
   213a -> 221a  :     0.013788 
   213a -> 226a  :     0.010778 
   214a -> 217a  :     0.010831 
   214a -> 219a  :     0.018677 
   215a -> 229a  :     0.011471 
   215a -> 230a  :     0.010094 
   216a -> 220a  :     0.012516 
   216a -> 223a  :     0.026084 
   216a -> 227a  :     0.015290 
   216a -> 228a  :     0.022489 
   216a -> 230a  :     0.027458 
   216a -> 231a  :     0.026195 
   216a -> 232a  :     0.012599 

STATE 40:  E=   0.204814 au      5.573 eV    44951.5 cm**-1 <S**2> =   0.000000
   202a -> 221a  :     0.017248 
   202a -> 222a  :     0.010601 
   203a -> 225a  :     0.010530 
   208a -> 224a  :     0.014474 
   209a -> 220a  :     0.015710 
   209a -> 222a  :     0.010036 
   209a -> 224a  :     0.012255 
   209a -> 230a  :     0.011304 
   213a -> 220a  :     0.016498 
   213a -> 230a  :     0.010211 
   214a -> 220a  :     0.029044 
   214a -> 221a  :     0.011832 
   215a -> 220a  :     0.036448 
   215a -> 226a  :     0.016329 
   216a -> 219a  :     0.019432 
   216a -> 221a  :     0.025875 
   216a -> 224a  :     0.020316 
   216a -> 225a  :     0.053020 
   216a -> 226a  :     0.038638 
   216a -> 230a  :     0.056793 
   216a -> 231a  :     0.010042 
   216a -> 232a  :     0.021960 
   216a -> 234a  :     0.017308 


-------------------------
TD-DFT-EXCITATION SPECTRA
-------------------------

Center of mass = (  0.0347, -0.0026,  0.0196)
Calculating the Dipole integrals                  ... done
Transforming integrals                            ... done
Calculating the Linear Momentum integrals         ... done
Transforming integrals                            ... done
Calculating angular momentum integrals            ... done
Transforming integrals                            ... done

-----------------------------------------------------------------------------
         ABSORPTION SPECTRUM VIA TRANSITION ELECTRIC DIPOLE MOMENTS
-----------------------------------------------------------------------------
State   Energy    Wavelength  fosc         T2        TX        TY        TZ  
        (cm-1)      (nm)                 (au**2)    (au)      (au)      (au) 
-----------------------------------------------------------------------------
   1   36995.6    270.3   0.537303181   4.78128   1.77837  -0.37452   1.21590
   2   36699.8    272.5   0.362886496   3.25524  -1.79932   0.13008  -0.02763
   3   38095.4    262.5   0.062306988   0.53844   0.18209  -0.61879  -0.34984
   4   36728.4    272.3   0.203359781   1.82280   0.56215  -0.58444  -1.07945
   5   31520.3    317.3   0.068911222   0.71974   0.10773   0.61673  -0.57252
   6   37134.3    269.3   0.057922807   0.51351  -0.24599   0.67219   0.03411
   7   38546.7    259.4   0.129547507   1.10641   0.28977   0.76556  -0.66058
   8   37271.1    268.3   0.003499087   0.03091   0.07338  -0.04251   0.15400
   9   39231.3    254.9   0.247139593   2.07389   1.27158  -0.03631   0.67502
  10   39234.3    254.9   0.150242531   1.26067  -0.92631  -0.21384  -0.59740
  11   37804.5    264.5   0.029229367   0.25454   0.27809  -0.33579   0.25386
  12   38244.5    261.5   0.005740445   0.04941   0.09055   0.04493  -0.19798
  13   37960.5    263.4   0.033558435   0.29103  -0.38145  -0.35962   0.12729
  14   38348.3    260.8   0.008060690   0.06920   0.18458  -0.13797  -0.12686
  15   38220.4    261.6   0.010090432   0.08691   0.20309  -0.07290   0.20088
  16   39920.6    250.5   0.089354167   0.73687  -0.12598  -0.80742   0.26283
  17   38468.9    260.0   0.063770930   0.54574   0.44231  -0.05730  -0.58891
  18   45034.3    222.1   0.001838750   0.01344   0.11503  -0.00586   0.01324
  19   41300.4    242.1   0.060081403   0.47892   0.23876   0.64373   0.08676
  20   43672.1    229.0   0.004673092   0.03523   0.16245   0.09175   0.02051
  21   44142.5    226.5   0.049088257   0.36610  -0.11158  -0.59458   0.01116
  22   45111.6    221.7   0.037424241   0.27311  -0.51519   0.00962   0.08714
  23   46569.6    214.7   0.026613187   0.18814  -0.03117  -0.17700   0.39476
  24   38903.9    257.0   0.062186517   0.52623  -0.40658   0.02723  -0.60016
  25   43978.3    227.4   0.233740558   1.74973   0.87521   0.83993   0.52749
  26   44588.4    224.3   0.247398718   1.82663  -0.64165   0.98654  -0.66457
  27   38297.9    261.1   0.035284224   0.30331   0.01519  -0.21849  -0.50531
  28   41375.2    241.7   0.408424399   3.24973   0.90574  -1.17903   1.01944
  29   43580.4    229.5   0.259093001   1.95722   1.36875   0.25768  -0.13169
  30   45440.1    220.1   0.020280591   0.14693   0.06370   0.33822  -0.16877
  31   46714.6    214.1   0.573145579   4.03913   1.82786  -0.83069  -0.08944
  32   49516.2    202.0   0.465334713   3.09381   1.54968   0.79516   0.24501
  33   47833.6    209.1   0.340442522   2.34307  -1.07427   0.30091  -1.04808
  34   46701.8    214.1   0.753542279   5.31189   0.57254   1.99092  -1.01012
  35   47844.5    209.0   0.582674933   4.00931  -1.70073  -0.90457  -0.54643
  36   47889.9    208.8   0.105631846   0.72615   0.33882   0.75481   0.20397
  37   44750.4    223.5   0.061179947   0.45008  -0.13276   0.65739   0.01725
  38   45111.8    221.7   0.257422251   1.87859  -0.35157   1.00546   0.86258
  39   47806.1    209.2   0.195288087   1.34483   0.63182  -0.86177   0.45054
  40   44951.5    222.5   0.166640073   1.22042  -1.05416   0.30999  -0.11438

-----------------------------------------------------------------------------
         ABSORPTION SPECTRUM VIA TRANSITION VELOCITY DIPOLE MOMENTS
-----------------------------------------------------------------------------
State   Energy    Wavelength   fosc        P2         PX        PY        PZ  
        (cm-1)      (nm)                 (au**2)     (au)      (au)      (au) 
-----------------------------------------------------------------------------
   1   36995.6    270.3   0.633582427   0.16020  -0.32492   0.06712  -0.22387
   2   36699.8    272.5   0.478856918   0.12011   0.34554  -0.02554   0.00758
   3   38095.4    262.5   0.081402458   0.02119  -0.03985   0.11869   0.07428
   4   36728.4    272.3   0.281901156   0.07076  -0.11053   0.11621   0.21223
   5   31520.3    317.3   0.137421541   0.02960  -0.02224  -0.12360   0.11761
   6   37134.3    269.3   0.085209248   0.02163   0.05251  -0.13735  -0.00193
   7   38546.7    259.4   0.175510865   0.04624  -0.05784  -0.15652   0.13563
   8   37271.1    268.3   0.005473327   0.00139  -0.01130   0.01142  -0.03371
   9   39231.3    254.9   0.322785751   0.08655  -0.25828   0.01062  -0.14045
  10   39234.3    254.9   0.196736775   0.05275   0.18944   0.04648   0.12127
  11   37804.5    264.5   0.043030697   0.01112  -0.05952   0.06890  -0.05318
  12   38244.5    261.5   0.008475687   0.00222  -0.01866  -0.01058   0.04190
  13   37960.5    263.4   0.049160658   0.01275   0.07991   0.07516  -0.02684
  14   38348.3    260.8   0.011680906   0.00306  -0.03833   0.02936   0.02702
  15   38220.4    261.6   0.016287134   0.00425  -0.04475   0.02261  -0.04172
  16   39920.6    250.5   0.128273860   0.03500   0.02458   0.17685  -0.05585
  17   38468.9    260.0   0.113874412   0.02994  -0.10181   0.02726   0.13723
  18   45034.3    222.1   0.001569090   0.00048  -0.01974  -0.00746  -0.00614
  19   41300.4    242.1   0.098719771   0.02787  -0.04880  -0.15796  -0.02307
  20   43672.1    229.0   0.006633243   0.00198  -0.03644  -0.02356  -0.00986
  21   44142.5    226.5   0.067929438   0.02049   0.02654   0.14067  -0.00015
  22   45111.6    221.7   0.047549255   0.01466   0.11880  -0.00912  -0.02154
  23   46569.6    214.7   0.024416471   0.00777   0.00392   0.03162  -0.08220
  24   38903.9    257.0   0.101258090   0.02692   0.09134  -0.00894   0.13602
  25   43978.3    227.4   0.323716742   0.09730  -0.20461  -0.19839  -0.12679
  26   44588.4    224.3   0.336747008   0.10262   0.15928  -0.22556   0.16240
  27   38297.9    261.1   0.062972349   0.01648  -0.00314   0.05753   0.11473
  28   41375.2    241.7   0.634943292   0.17955  -0.20997   0.28303  -0.23529
  29   43580.4    229.5   0.376743643   0.11221  -0.32749  -0.06305   0.03141
  30   45440.1    220.1   0.027546808   0.00855  -0.01675  -0.08377   0.03545
  31   46714.6    214.1   0.727702973   0.23233  -0.43723   0.20156   0.02317
  32   49516.2    202.0   0.527762216   0.17860  -0.37143  -0.19279  -0.05895
  33   47833.6    209.1   0.426947817   0.13958   0.26128  -0.07761   0.25551
  34   46701.8    214.1   0.992482769   0.31678  -0.13591  -0.48515   0.25087
  35   47844.5    209.0   0.734892889   0.24031   0.41608   0.22462   0.12935
  36   47889.9    208.8   0.135809367   0.04445  -0.08168  -0.18587  -0.05685
  37   44750.4    223.5   0.085384162   0.02611   0.02955  -0.15870  -0.00744
  38   45111.8    221.7   0.376314823   0.11602   0.08749  -0.25091  -0.21311
  39   47806.1    209.2   0.258307726   0.08440  -0.15614   0.21950  -0.10879
  40   44951.5    222.5   0.240401956   0.07386   0.25763  -0.08219   0.02696

-------------------------------------------------------------------
                             CD SPECTRUM
-------------------------------------------------------------------
State  Energy     Wavelength     R         MX        MY        MZ   
       (cm-1)       (nm)     (1e40*cgs)   (au)      (au)      (au)  
-------------------------------------------------------------------
   1   36995.6    270.3    157.41634  -0.17657   1.27358   0.92514
   2   36699.8    272.5    -371.69685   0.41817  -0.33002  -0.25088
   3   38095.4    262.5     24.47841  -0.73813  -0.15021  -0.26693
   4   36728.4    272.3    127.80859  -0.29085   0.51253  -0.68011
   5   31520.3    317.3     95.54722   0.19576   0.41487   0.12975
   6   37134.3    269.3     52.83131  -0.08465   0.11247   0.45838
   7   38546.7    259.4    -164.38161  -0.06854   0.10838   0.62336
   8   37271.1    268.3      9.93364  -0.00941   0.18848   0.19334
   9   39231.3    254.9    -77.26436   0.02669  -0.09761  -0.29832
  10   39234.3    254.9    -17.12666  -0.18080   0.09239   0.30808
  11   37804.5    264.5     15.13025   0.08098  -0.14269  -0.15103
  12   38244.5    261.5     25.31114   0.14934   0.29328  -0.13632
  13   37960.5    263.4     71.47526  -0.25168  -0.15324   0.00390
  14   38348.3    260.8     25.28313   0.18045   0.07705  -0.24397
  15   38220.4    261.6     -6.41125   0.04065  -0.01624  -0.11469
  16   39920.6    250.5    114.92076   0.10303  -0.35145  -0.10282
  17   38468.9    260.0     12.86364  -0.04313   0.28356  -0.10631
  18   45034.3    222.1     14.42086   0.27436   0.15667  -0.00405
  19   41300.4    242.1     48.29437   0.36405   0.02663  -0.01869
  20   43672.1    229.0    -19.62802  -0.25110  -0.06181   0.23538
  21   44142.5    226.5    -96.61366  -0.10508   0.36764   0.17377
  22   45111.6    221.7     18.23674  -0.03481   0.08165   0.22907
  23   46569.6    214.7    -45.84962  -0.03476  -0.06530  -0.27838
  24   38903.9    257.0    -36.92248  -0.44993   0.02164   0.43628
  25   43978.3    227.4    -50.92713   0.55240  -0.19605  -0.80914
  26   44588.4    224.3     77.75709   0.37598   0.21512  -0.29185
  27   38297.9    261.1    103.38788  -0.56226  -0.33732  -0.30504
  28   41375.2    241.7    -173.38271  -0.35035   0.61449   0.66121
  29   43580.4    229.5    -768.38899  -1.18606   0.29204   0.62016
  30   45440.1    220.1    116.16962   0.70059   0.22500  -0.74467
  31   46714.6    214.1    -330.31244  -0.80631  -0.89040  -0.37503
  32   49516.2    202.0    551.16263   0.69983   0.32484  -0.70907
  33   47833.6    209.1    686.67324  -1.33146  -0.57090  -0.18888
  34   46701.8    214.1    -1063.98271   0.04376  -1.61196  -0.91811
  35   47844.5    209.0    284.56123   0.28441   0.30925  -2.50176
  36   47889.9    208.8    -354.36129  -0.32055  -1.05019   0.73378
  37   44750.4    223.5    -248.88832   0.24292  -0.75800   0.15211
  38   45111.8    221.7    550.34037   0.04450  -0.41461   1.85474
  39   47806.1    209.2    -319.59577  -0.46324   0.19400  -0.48395
  40   44951.5    222.5    276.80635  -0.77208  -0.85666  -0.33918

-------------------------------------------------------------------
         CD SPECTRUM VIA TRANSITION VELOCITY DIPOLE MOMENTS        
-------------------------------------------------------------------
State  Energy     Wavelength     R         MX        MY        MZ   
       (cm-1)       (nm)     (1e40*cgs)   (au)      (au)      (au)  
-------------------------------------------------------------------
   1   36995.6    270.3    179.72543  -0.17657   1.27358   0.92514
   2   36699.8    272.5    -425.78751   0.41817  -0.33002  -0.25088
   3   38095.4    262.5     22.37792  -0.73813  -0.15021  -0.26693
   4   36728.4    272.3    148.28575  -0.29085   0.51253  -0.68011
   5   31520.3    317.3    132.53175   0.19576   0.41487   0.12975
   6   37134.3    269.3     57.89847  -0.08465   0.11247   0.45838
   7   38546.7    259.4    -192.05657  -0.06854   0.10838   0.62336
   8   37271.1    268.3     11.82111  -0.00941   0.18848   0.19334
   9   39231.3    254.9    -89.58737   0.02669  -0.09761  -0.29832
  10   39234.3    254.9    -19.52655  -0.18080   0.09239   0.30808
  11   37804.5    264.5     18.11528   0.08098  -0.14269  -0.15103
  12   38244.5    261.5     31.38452   0.14934   0.29328  -0.13632
  13   37960.5    263.4     86.49511  -0.25168  -0.15324   0.00390
  14   38348.3    260.8     30.34774   0.18045   0.07705  -0.24397
  15   38220.4    261.6     -7.03498   0.04065  -0.01624  -0.11469
  16   39920.6    250.5    139.64713   0.10303  -0.35145  -0.10282
  17   38468.9    260.0      6.64352  -0.04313   0.28356  -0.10631
  18   45034.3    222.1     15.06969   0.27436   0.15667  -0.00405
  19   41300.4    242.1     53.97035   0.36405   0.02663  -0.01869
  20   43672.1    229.0    -19.63074  -0.25110  -0.06181   0.23538
  21   44142.5    226.5    -114.63208  -0.10508   0.36764   0.17377
  22   45111.6    221.7     22.51129  -0.03481   0.08165   0.22907
  23   46569.6    214.7    -45.95037  -0.03476  -0.06530  -0.27838
  24   38903.9    257.0    -48.01096  -0.44993   0.02164   0.43628
  25   43978.3    227.4    -66.95275   0.55240  -0.19605  -0.80914
  26   44588.4    224.3     83.61583   0.37598   0.21512  -0.29185
  27   38297.9    261.1    142.20502  -0.56226  -0.33732  -0.30504
  28   41375.2    241.7    -229.83512  -0.35035   0.61449   0.66121
  29   43580.4    229.5    -924.75993  -1.18606   0.29204   0.62016
  30   45440.1    220.1    129.74722   0.70059   0.22500  -0.74467
  31   46714.6    214.1    -364.10019  -0.80631  -0.89040  -0.37503
  32   49516.2    202.0    586.70747   0.69983   0.32484  -0.70907
  33   47833.6    209.1    761.08269  -1.33146  -0.57090  -0.18888
  34   46701.8    214.1    -1209.19929   0.04376  -1.61196  -0.91811
  35   47844.5    209.0    293.67058   0.28441   0.30925  -2.50176
  36   47889.9    208.8    -388.19522  -0.32055  -1.05019   0.73378
  37   44750.4    223.5    -292.12606   0.24292  -0.75800   0.15211
  38   45111.8    221.7    659.05291   0.04450  -0.41461   1.85474
  39   47806.1    209.2    -362.67143  -0.46324   0.19400  -0.48395
  40   44951.5    222.5    316.84968  -0.77208  -0.85666  -0.33918

Total run time:    22490.162 sec

           *** ORCA-CIS/TD-DFT FINISHED WITHOUT ERROR ***

Maximum memory used throughout the entire CIS-calculation: 7111.7 MB

-----------------------
CIS/TD-DFT TOTAL ENERGY
-----------------------

    E(SCF)  =  -4537.390934725 Eh
    DE(CIS) =      0.168564522 Eh (Root  1)
    ----------------------------- ---------
    E(tot)  =  -4537.222370203 Eh


-------------------------   --------------------
FINAL SINGLE POINT ENERGY     -4537.222370203207
-------------------------   --------------------


                            ***************************************
                            *     ORCA property calculations      *
                            ***************************************


  WARNING: The energy has been calculated at the MP2 level but the densities
           used in the property calculations are still SCF densities
           MP2 response densities have not been calculated 
           use %mp2 Density relaxed end
           or  %mp2 Density unrelaxed end

                                    ---------------------
                                    Active property flags
                                    ---------------------
   (+) Dipole Moment


------------------------------------------------------------------------------
                       ORCA ELECTRIC PROPERTIES CALCULATION
------------------------------------------------------------------------------

Dipole Moment Calculation                       ... on
Quadrupole Moment Calculation                   ... off
Polarizability Calculation                      ... off
GBWName                                         ... Cu50_DPEPhos-pytri_SOS-wPBEPP86_def2SVP.gbw
Electron density                                ... Cu50_DPEPhos-pytri_SOS-wPBEPP86_def2SVP.scfp
The origin for moment calculation is the CENTER OF MASS  = ( 0.034738, -0.002638  0.019565)

-------------
DIPOLE MOMENT
-------------
                                X             Y             Z
Electronic contribution:     14.04628      -3.05742      10.44071
Nuclear contribution   :    -15.11080       1.14733      -8.51071
                        -----------------------------------------
Total Dipole Moment    :     -1.06452      -1.91009       1.93000
                        -----------------------------------------
Magnitude (a.u.)       :      2.91660
Magnitude (Debye)      :      7.41340



--------------------
Rotational spectrum 
--------------------
 
Rotational constants in cm-1:     0.001865     0.001382     0.001227 
Rotational constants in MHz :    55.905092    41.427116    36.778899 

 Dipole components along the rotational axes: 
x,y,z [a.u.] :     1.075845    -1.903269     1.930457 
x,y,z [Debye]:     2.734579    -4.837725     4.906833 

 

Timings for individual modules:

Sum of individual times         ...    24367.546 sec (= 406.126 min)
GTO integral calculation        ...        4.526 sec (=   0.075 min)   0.0 %
SCF iterations                  ...      872.160 sec (=  14.536 min)   3.6 %
MP2 module                      ...      998.794 sec (=  16.647 min)   4.1 %
CIS module                      ...    22492.066 sec (= 374.868 min)  92.3 %
                             ****ORCA TERMINATED NORMALLY****
TOTAL RUN TIME: 0 days 6 hours 46 minutes 11 seconds 600 msec
