 Entering Gaussian System, Link 0=g16
 Input=/project/home/png4rjv/photocat/TMPC_bench/gaussian/PBE-D3/Cu50/nosolv/Cu50_DPEPhos-pytri_PBE-D3_def2SVP.gjf
 Output=/project/home/png4rjv/photocat/TMPC_bench/gaussian/PBE-D3/Cu50/nosolv/Cu50_DPEPhos-pytri_PBE-D3_def2SVP.log
 Initial command:
 /opt/software/packages/g16/l1.exe "/scratch/ligandum/png4rjv/3188605/Gau-143399.inp" -scrdir="/scratch/ligandum/png4rjv/3188605/"
 Default is to use a total of  12 processors:
                               12 via shared-memory
                                1 via Linda
 Entering Link 1 = /opt/software/packages/g16/l1.exe PID=    143408.
  
 Copyright (c) 1988-2021, Gaussian, Inc.  All Rights Reserved.
  
 This is part of the Gaussian(R) 16 program.  It is based on
 the Gaussian(R) 09 system (copyright 2009, Gaussian, Inc.),
 the Gaussian(R) 03 system (copyright 2003, Gaussian, Inc.),
 the Gaussian(R) 98 system (copyright 1998, Gaussian, Inc.),
 the Gaussian(R) 94 system (copyright 1995, Gaussian, Inc.),
 the Gaussian 92(TM) system (copyright 1992, Gaussian, Inc.),
 the Gaussian 90(TM) system (copyright 1990, Gaussian, Inc.),
 the Gaussian 88(TM) system (copyright 1988, Gaussian, Inc.),
 the Gaussian 86(TM) system (copyright 1986, Carnegie Mellon
 University), and the Gaussian 82(TM) system (copyright 1983,
 Carnegie Mellon University). Gaussian is a federally registered
 trademark of Gaussian, Inc.
  
 This software contains proprietary and confidential information,
 including trade secrets, belonging to Gaussian, Inc.
  
 This software is provided under written license and may be
 used, copied, transmitted, or stored only in accord with that
 written license.
  
 The following legend is applicable only to US Government
 contracts under FAR:
  
                    RESTRICTED RIGHTS LEGEND
  
 Use, reproduction and disclosure by the US Government is
 subject to restrictions as set forth in subparagraphs (a)
 and (c) of the Commercial Computer Software - Restricted
 Rights clause in FAR 52.227-19.
  
 Gaussian, Inc.
 340 Quinnipiac St., Bldg. 40, Wallingford CT 06492
  
  
 ---------------------------------------------------------------
 Warning -- This program may not be used in any manner that
 competes with the business of Gaussian, Inc. or will provide
 assistance to any competitor of Gaussian, Inc.  The licensee
 of this program is prohibited from giving any competitor of
 Gaussian, Inc. access to this program.  By using this program,
 the user acknowledges that Gaussian, Inc. is engaged in the
 business of creating and licensing software in the field of
 computational chemistry and represents and warrants to the
 licensee that it is not a competitor of Gaussian, Inc. and that
 it will not use this program in any manner prohibited above.
 ---------------------------------------------------------------
  

 Cite this work as:
 Gaussian 16, Revision C.02,
 M. J. Frisch, G. W. Trucks, H. B. Schlegel, G. E. Scuseria, 
 M. A. Robb, J. R. Cheeseman, G. Scalmani, V. Barone, 
 G. A. Petersson, H. Nakatsuji, X. Li, M. Caricato, A. V. Marenich, 
 J. Bloino, B. G. Janesko, R. Gomperts, B. Mennucci, H. P. Hratchian, 
 J. V. Ortiz, A. F. Izmaylov, J. L. Sonnenberg, D. Williams-Young, 
 F. Ding, F. Lipparini, F. Egidi, J. Goings, B. Peng, A. Petrone, 
 T. Henderson, D. Ranasinghe, V. G. Zakrzewski, J. Gao, N. Rega, 
 G. Zheng, W. Liang, M. Hada, M. Ehara, K. Toyota, R. Fukuda, 
 J. Hasegawa, M. Ishida, T. Nakajima, Y. Honda, O. Kitao, H. Nakai, 
 T. Vreven, K. Throssell, J. A. Montgomery, Jr., J. E. Peralta, 
 F. Ogliaro, M. J. Bearpark, J. J. Heyd, E. N. Brothers, K. N. Kudin, 
 V. N. Staroverov, T. A. Keith, R. Kobayashi, J. Normand, 
 K. Raghavachari, A. P. Rendell, J. C. Burant, S. S. Iyengar, 
 J. Tomasi, M. Cossi, J. M. Millam, M. Klene, C. Adamo, R. Cammi, 
 J. W. Ochterski, R. L. Martin, K. Morokuma, O. Farkas, 
 J. B. Foresman, and D. J. Fox, Gaussian, Inc., Wallingford CT, 2019.
 
 ******************************************
 Gaussian 16:  AS64L-G16RevC.02  7-Dec-2021
                20-Nov-2023 
 ******************************************
 %chk=cp.chk
 %NProcshared=16
 Will use up to   16 processors via shared memory.
 Default route: MaxDisk=500GB
 ----------------------------------------------------------------------
 #p PBEPBE/def2svp opt Symmetry=None int=ultrafine EmpiricalDispersion=
 GD3BJ
 ----------------------------------------------------------------------
 1/18=20,19=15,26=4,38=1/1,3;
 2/9=110,12=2,15=3,17=6,18=5,40=1/2;
 3/5=43,7=101,11=2,25=1,30=1,71=1,74=1009,75=-5,124=41/1,2,3;
 4//1;
 5/5=2,38=5/2;
 6/7=2,8=2,9=2,10=2,28=1/1;
 7/30=1/1,2,3,16;
 1/18=20,19=15,26=4/3(2);
 2/9=110,15=3/2;
 99//99;
 2/9=110,15=3/2;
 3/5=43,7=101,11=2,25=1,30=1,71=1,74=1009,75=-5,124=41/1,2,3;
 4/5=5,16=3,69=1/1;
 5/5=2,38=5/2;
 7/30=1/1,2,3,16;
 1/18=20,19=15,26=4/3(-5);
 2/9=110,15=3/2;
 6/7=2,8=2,9=2,10=2,19=2,28=1/1;
 99/9=1/99;
 Leave Link    1 at Mon Nov 20 10:42:40 2023, MaxMem=           0 cpu:               0.1 elap:               0.1
 (Enter /opt/software/packages/g16/l101.exe)
 -----
 Title
 -----
 Symbolic Z-matrix:
 Charge =  1 Multiplicity = 1
 C                     1.46689   2.36798  -1.12316 
 C                     1.19774   1.47973  -2.1821 
 C                     1.96232   1.48629  -3.34742 
 C                     3.00456   2.40387  -3.47233 
 C                     3.27463   3.31081  -2.44824 
 C                     2.51032   3.28811  -1.28192 
 C                     0.84611  -1.66525  -2.14769 
 C                     0.10003  -0.58342  -2.65184 
 C                    -0.7357   -0.72465  -3.75573 
 C                    -0.82549  -1.95969  -4.3946 
 C                    -0.08101  -3.04285  -3.92732 
 C                     0.74111  -2.89614  -2.81133 
 C                    -1.10204   2.72998   0.21863 
 C                    -1.56401   3.25632  -0.99294 
 C                    -2.89299   3.66493  -1.1199 
 C                    -3.76946   3.55294  -0.04138 
 C                    -3.31487   3.02915   1.17133 
 C                    -1.99196   2.61444   1.29856 
 C                     1.37068   3.26384   1.60855 
 C                     2.39836   2.79466   2.43899 
 C                     3.05205   3.66187   3.31334 
 C                     2.674     5.00327   3.37536 
 C                     1.64426   5.47609   2.5599 
 C                     0.99569   4.61324   1.67796 
 C                     2.0417   -3.11777   0.04573 
 C                     0.89407  -3.83573   0.42642 
 C                     1.00955  -5.0733    1.05168 
 C                     2.27305  -5.60479   1.32467 
 C                     3.41525  -4.8947    0.96013 
 C                     3.3041   -3.65724   0.32179 
 C                     3.4499   -0.86944  -1.13992 
 C                     4.08516   0.13537  -0.39938 
 C                     5.35099   0.59023  -0.76887 
 C                     5.98734   0.0457   -1.88381 
 C                     5.35844  -0.95471  -2.62901 
 C                     4.09494  -1.41175  -2.26112 
 H                     1.74439   0.77489  -4.14727 
 H                     3.60776   2.40689  -4.38332 
 H                     4.08926   4.03075  -2.55054 
 H                     2.74392   3.98328  -0.47099 
 H                    -1.30645   0.14044  -4.09971 
 H                    -1.47963  -2.07398  -5.26174 
 H                    -0.14538  -4.01087  -4.42865 
 H                     1.3044   -3.75667  -2.43968 
 H                    -3.24324   4.07501  -2.07041 
 H                    -4.81035   3.86923  -0.14546 
 H                    -3.99786   2.93551   2.01958 
 H                    -1.64312   2.18951   2.24656 
 H                     3.85342   3.28696   3.9543 
 H                     3.18029   5.6827    4.06516 
 H                     1.34553   6.52595   2.60901 
 H                     0.19514   4.99292   1.03601 
 H                     0.10916  -5.62372   1.33584 
 H                     2.36471  -6.57233   1.82367 
 H                     4.40599  -5.30468   1.17079 
 H                     4.20978  -3.11156   0.04303 
 H                     5.83654   1.37856  -0.18827 
 H                     6.97671   0.40441  -2.1778 
 H                     5.85609  -1.38007  -3.50385 
 H                     3.60629  -2.1946   -2.84949 
 O                     0.13317   0.63377  -2.00108 
 P                     0.59094   2.08373   0.45432 
 P                     1.79852  -1.42759  -0.59832 
 H                     2.68541   1.73837   2.3971 
 H                    -0.88518   3.35289  -1.84505 
 H                     3.57364   0.56918   0.46774 
 H                    -0.09854  -3.41399   0.23218 
 Cu                    0.56426  -0.1514    0.85572 
 C                    -0.95376  -1.64827   2.90369 
 C                    -1.25749  -2.43961   4.01524 
 C                    -0.23772  -2.78213   4.89551 
 C                     1.05707  -2.3307    4.64059 
 C                     1.27573  -1.53941   3.51841 
 H                    -2.2795   -2.78911   4.17195 
 H                     1.88793  -2.58371   5.30037 
 H                     2.27662  -1.16453   3.28179 
 N                     0.29978  -1.19525   2.67002 
 H                    -0.44943  -3.40283   5.76826 
 C                    -1.93163  -1.28157   1.88785 
 C                    -3.30783  -1.37137   1.80446 
 H                    -4.06154  -1.72406   2.50034 
 N                    -1.49323  -0.72511   0.72216 
 N                    -2.49177  -0.47304  -0.06545 
 N                    -3.6077   -0.85902   0.58462 
 C                    -4.88223  -0.69022  -0.02161 
 C                    -6.00535  -1.31704   0.51966 
 C                    -5.0018    0.1152   -1.15821 
 C                    -7.2484   -1.12609  -0.07707 
 H                    -5.9186   -1.95914   1.39766 
 C                    -6.25115   0.28863  -1.74042 
 H                    -4.11936   0.60575  -1.57034 
 C                    -7.40026  -0.32377  -1.21579 
 H                    -8.12387  -1.61867   0.35382 
 H                    -6.33931   0.92444  -2.62559 
 C                    -8.73198  -0.14023  -1.86619 
 H                    -8.81513  -0.74865  -2.78045 
 H                    -9.55579  -0.43608  -1.20471 
 H                    -8.89461   0.90204  -2.17349 
 
 ITRead=  0  0  0  0  0  0  0  0  0  0  0  0  0  0  0  0  0  0  0  0
 ITRead=  0  0  0  0  0  0  0  0  0  0  0  0  0  0  0  0  0  0  0  0
 ITRead=  0  0  0  0  0  0  0  0  0  0  0  0  0  0  0  0  0  0  0  0
 ITRead=  0  0  0  0  0  0  0  0  0  0  0  0  0  0  0  0  0  0  0  0
 ITRead=  0  0  0  0  0  0  0  0  0  0  0  0  0  0  0  0  0  0
 MicOpt= -1 -1 -1 -1 -1 -1 -1 -1 -1 -1 -1 -1 -1 -1 -1 -1 -1 -1 -1 -1
 MicOpt= -1 -1 -1 -1 -1 -1 -1 -1 -1 -1 -1 -1 -1 -1 -1 -1 -1 -1 -1 -1
 MicOpt= -1 -1 -1 -1 -1 -1 -1 -1 -1 -1 -1 -1 -1 -1 -1 -1 -1 -1 -1 -1
 MicOpt= -1 -1 -1 -1 -1 -1 -1 -1 -1 -1 -1 -1 -1 -1 -1 -1 -1 -1 -1 -1
 MicOpt= -1 -1 -1 -1 -1 -1 -1 -1 -1 -1 -1 -1 -1 -1 -1 -1 -1 -1
 NAtoms=     98 NQM=       98 NQMF=       0 NMMI=      0 NMMIF=      0
                NMic=       0 NMicF=      0.
                    Isotopes and Nuclear Properties:
 (Nuclear quadrupole moments (NQMom) in fm**2, nuclear magnetic moments (NMagM)
  in nuclear magnetons)

  Atom         1           2           3           4           5           6           7           8           9          10
 IAtWgt=          12          12          12          12          12          12          12          12          12          12
 AtmWgt=  12.0000000  12.0000000  12.0000000  12.0000000  12.0000000  12.0000000  12.0000000  12.0000000  12.0000000  12.0000000
 NucSpn=           0           0           0           0           0           0           0           0           0           0
 AtZEff=  -0.0000000  -0.0000000  -0.0000000  -0.0000000  -0.0000000  -0.0000000  -0.0000000  -0.0000000  -0.0000000  -0.0000000
 NQMom=    0.0000000   0.0000000   0.0000000   0.0000000   0.0000000   0.0000000   0.0000000   0.0000000   0.0000000   0.0000000
 NMagM=    0.0000000   0.0000000   0.0000000   0.0000000   0.0000000   0.0000000   0.0000000   0.0000000   0.0000000   0.0000000
 AtZNuc=   6.0000000   6.0000000   6.0000000   6.0000000   6.0000000   6.0000000   6.0000000   6.0000000   6.0000000   6.0000000

  Atom        11          12          13          14          15          16          17          18          19          20
 IAtWgt=          12          12          12          12          12          12          12          12          12          12
 AtmWgt=  12.0000000  12.0000000  12.0000000  12.0000000  12.0000000  12.0000000  12.0000000  12.0000000  12.0000000  12.0000000
 NucSpn=           0           0           0           0           0           0           0           0           0           0
 AtZEff=  -0.0000000  -0.0000000  -0.0000000  -0.0000000  -0.0000000  -0.0000000  -0.0000000  -0.0000000  -0.0000000  -0.0000000
 NQMom=    0.0000000   0.0000000   0.0000000   0.0000000   0.0000000   0.0000000   0.0000000   0.0000000   0.0000000   0.0000000
 NMagM=    0.0000000   0.0000000   0.0000000   0.0000000   0.0000000   0.0000000   0.0000000   0.0000000   0.0000000   0.0000000
 AtZNuc=   6.0000000   6.0000000   6.0000000   6.0000000   6.0000000   6.0000000   6.0000000   6.0000000   6.0000000   6.0000000

  Atom        21          22          23          24          25          26          27          28          29          30
 IAtWgt=          12          12          12          12          12          12          12          12          12          12
 AtmWgt=  12.0000000  12.0000000  12.0000000  12.0000000  12.0000000  12.0000000  12.0000000  12.0000000  12.0000000  12.0000000
 NucSpn=           0           0           0           0           0           0           0           0           0           0
 AtZEff=  -0.0000000  -0.0000000  -0.0000000  -0.0000000  -0.0000000  -0.0000000  -0.0000000  -0.0000000  -0.0000000  -0.0000000
 NQMom=    0.0000000   0.0000000   0.0000000   0.0000000   0.0000000   0.0000000   0.0000000   0.0000000   0.0000000   0.0000000
 NMagM=    0.0000000   0.0000000   0.0000000   0.0000000   0.0000000   0.0000000   0.0000000   0.0000000   0.0000000   0.0000000
 AtZNuc=   6.0000000   6.0000000   6.0000000   6.0000000   6.0000000   6.0000000   6.0000000   6.0000000   6.0000000   6.0000000

  Atom        31          32          33          34          35          36          37          38          39          40
 IAtWgt=          12          12          12          12          12          12           1           1           1           1
 AtmWgt=  12.0000000  12.0000000  12.0000000  12.0000000  12.0000000  12.0000000   1.0078250   1.0078250   1.0078250   1.0078250
 NucSpn=           0           0           0           0           0           0           1           1           1           1
 AtZEff=  -0.0000000  -0.0000000  -0.0000000  -0.0000000  -0.0000000  -0.0000000  -0.0000000  -0.0000000  -0.0000000  -0.0000000
 NQMom=    0.0000000   0.0000000   0.0000000   0.0000000   0.0000000   0.0000000   0.0000000   0.0000000   0.0000000   0.0000000
 NMagM=    0.0000000   0.0000000   0.0000000   0.0000000   0.0000000   0.0000000   2.7928460   2.7928460   2.7928460   2.7928460
 AtZNuc=   6.0000000   6.0000000   6.0000000   6.0000000   6.0000000   6.0000000   1.0000000   1.0000000   1.0000000   1.0000000

  Atom        41          42          43          44          45          46          47          48          49          50
 IAtWgt=           1           1           1           1           1           1           1           1           1           1
 AtmWgt=   1.0078250   1.0078250   1.0078250   1.0078250   1.0078250   1.0078250   1.0078250   1.0078250   1.0078250   1.0078250
 NucSpn=           1           1           1           1           1           1           1           1           1           1
 AtZEff=  -0.0000000  -0.0000000  -0.0000000  -0.0000000  -0.0000000  -0.0000000  -0.0000000  -0.0000000  -0.0000000  -0.0000000
 NQMom=    0.0000000   0.0000000   0.0000000   0.0000000   0.0000000   0.0000000   0.0000000   0.0000000   0.0000000   0.0000000
 NMagM=    2.7928460   2.7928460   2.7928460   2.7928460   2.7928460   2.7928460   2.7928460   2.7928460   2.7928460   2.7928460
 AtZNuc=   1.0000000   1.0000000   1.0000000   1.0000000   1.0000000   1.0000000   1.0000000   1.0000000   1.0000000   1.0000000

  Atom        51          52          53          54          55          56          57          58          59          60
 IAtWgt=           1           1           1           1           1           1           1           1           1           1
 AtmWgt=   1.0078250   1.0078250   1.0078250   1.0078250   1.0078250   1.0078250   1.0078250   1.0078250   1.0078250   1.0078250
 NucSpn=           1           1           1           1           1           1           1           1           1           1
 AtZEff=  -0.0000000  -0.0000000  -0.0000000  -0.0000000  -0.0000000  -0.0000000  -0.0000000  -0.0000000  -0.0000000  -0.0000000
 NQMom=    0.0000000   0.0000000   0.0000000   0.0000000   0.0000000   0.0000000   0.0000000   0.0000000   0.0000000   0.0000000
 NMagM=    2.7928460   2.7928460   2.7928460   2.7928460   2.7928460   2.7928460   2.7928460   2.7928460   2.7928460   2.7928460
 AtZNuc=   1.0000000   1.0000000   1.0000000   1.0000000   1.0000000   1.0000000   1.0000000   1.0000000   1.0000000   1.0000000

  Atom        61          62          63          64          65          66          67          68          69          70
 IAtWgt=          16          31          31           1           1           1           1          63          12          12
 AtmWgt=  15.9949146  30.9737634  30.9737634   1.0078250   1.0078250   1.0078250   1.0078250  62.9295992  12.0000000  12.0000000
 NucSpn=           0           1           1           1           1           1           1           3           0           0
 AtZEff=  -0.0000000  -0.0000000  -0.0000000  -0.0000000  -0.0000000  -0.0000000  -0.0000000  -0.0000000  -0.0000000  -0.0000000
 NQMom=    0.0000000   0.0000000   0.0000000   0.0000000   0.0000000   0.0000000   0.0000000 -22.0000000   0.0000000   0.0000000
 NMagM=    0.0000000   1.1316000   1.1316000   2.7928460   2.7928460   2.7928460   2.7928460   2.2233000   0.0000000   0.0000000
 AtZNuc=   8.0000000  15.0000000  15.0000000   1.0000000   1.0000000   1.0000000   1.0000000  29.0000000   6.0000000   6.0000000

  Atom        71          72          73          74          75          76          77          78          79          80
 IAtWgt=          12          12          12           1           1           1          14           1          12          12
 AtmWgt=  12.0000000  12.0000000  12.0000000   1.0078250   1.0078250   1.0078250  14.0030740   1.0078250  12.0000000  12.0000000
 NucSpn=           0           0           0           1           1           1           2           1           0           0
 AtZEff=  -0.0000000  -0.0000000  -0.0000000  -0.0000000  -0.0000000  -0.0000000  -0.0000000  -0.0000000  -0.0000000  -0.0000000
 NQMom=    0.0000000   0.0000000   0.0000000   0.0000000   0.0000000   0.0000000   2.0440000   0.0000000   0.0000000   0.0000000
 NMagM=    0.0000000   0.0000000   0.0000000   2.7928460   2.7928460   2.7928460   0.4037610   2.7928460   0.0000000   0.0000000
 AtZNuc=   6.0000000   6.0000000   6.0000000   1.0000000   1.0000000   1.0000000   7.0000000   1.0000000   6.0000000   6.0000000

  Atom        81          82          83          84          85          86          87          88          89          90
 IAtWgt=           1          14          14          14          12          12          12          12           1          12
 AtmWgt=   1.0078250  14.0030740  14.0030740  14.0030740  12.0000000  12.0000000  12.0000000  12.0000000   1.0078250  12.0000000
 NucSpn=           1           2           2           2           0           0           0           0           1           0
 AtZEff=  -0.0000000  -0.0000000  -0.0000000  -0.0000000  -0.0000000  -0.0000000  -0.0000000  -0.0000000  -0.0000000  -0.0000000
 NQMom=    0.0000000   2.0440000   2.0440000   2.0440000   0.0000000   0.0000000   0.0000000   0.0000000   0.0000000   0.0000000
 NMagM=    2.7928460   0.4037610   0.4037610   0.4037610   0.0000000   0.0000000   0.0000000   0.0000000   2.7928460   0.0000000
 AtZNuc=   1.0000000   7.0000000   7.0000000   7.0000000   6.0000000   6.0000000   6.0000000   6.0000000   1.0000000   6.0000000

  Atom        91          92          93          94          95          96          97          98
 IAtWgt=           1          12           1           1          12           1           1           1
 AtmWgt=   1.0078250  12.0000000   1.0078250   1.0078250  12.0000000   1.0078250   1.0078250   1.0078250
 NucSpn=           1           0           1           1           0           1           1           1
 AtZEff=  -0.0000000  -0.0000000  -0.0000000  -0.0000000  -0.0000000  -0.0000000  -0.0000000  -0.0000000
 NQMom=    0.0000000   0.0000000   0.0000000   0.0000000   0.0000000   0.0000000   0.0000000   0.0000000
 NMagM=    2.7928460   0.0000000   2.7928460   2.7928460   0.0000000   2.7928460   2.7928460   2.7928460
 AtZNuc=   1.0000000   6.0000000   1.0000000   1.0000000   6.0000000   1.0000000   1.0000000   1.0000000
 Leave Link  101 at Mon Nov 20 10:42:41 2023, MaxMem=  2831155200 cpu:               0.2 elap:               0.1
 (Enter /opt/software/packages/g16/l103.exe)

 GradGradGradGradGradGradGradGradGradGradGradGradGradGradGradGradGradGrad
 Berny optimization.
 Initialization pass.
                           ----------------------------
                           !    Initial Parameters    !
                           ! (Angstroms and Degrees)  !
 --------------------------                            --------------------------
 ! Name  Definition              Value          Derivative Info.                !
 --------------------------------------------------------------------------------
 ! R1    R(1,2)                  1.4081         estimate D2E/DX2                !
 ! R2    R(1,6)                  1.4002         estimate D2E/DX2                !
 ! R3    R(1,62)                 1.8266         estimate D2E/DX2                !
 ! R4    R(2,3)                  1.3938         estimate D2E/DX2                !
 ! R5    R(2,61)                 1.3718         estimate D2E/DX2                !
 ! R6    R(3,4)                  1.3942         estimate D2E/DX2                !
 ! R7    R(3,37)                 1.0924         estimate D2E/DX2                !
 ! R8    R(4,5)                  1.3944         estimate D2E/DX2                !
 ! R9    R(4,38)                 1.0926         estimate D2E/DX2                !
 ! R10   R(5,6)                  1.3946         estimate D2E/DX2                !
 ! R11   R(5,39)                 1.092          estimate D2E/DX2                !
 ! R12   R(6,40)                 1.0934         estimate D2E/DX2                !
 ! R13   R(7,8)                  1.4075         estimate D2E/DX2                !
 ! R14   R(7,12)                 1.4023         estimate D2E/DX2                !
 ! R15   R(7,63)                 1.8342         estimate D2E/DX2                !
 ! R16   R(8,9)                  1.3918         estimate D2E/DX2                !
 ! R17   R(8,61)                 1.3806         estimate D2E/DX2                !
 ! R18   R(9,10)                 1.3934         estimate D2E/DX2                !
 ! R19   R(9,41)                 1.092          estimate D2E/DX2                !
 ! R20   R(10,11)                1.3949         estimate D2E/DX2                !
 ! R21   R(10,42)                1.0922         estimate D2E/DX2                !
 ! R22   R(11,12)                1.3939         estimate D2E/DX2                !
 ! R23   R(11,43)                1.092          estimate D2E/DX2                !
 ! R24   R(12,44)                1.0936         estimate D2E/DX2                !
 ! R25   R(13,14)                1.3994         estimate D2E/DX2                !
 ! R26   R(13,18)                1.4041         estimate D2E/DX2                !
 ! R27   R(13,62)                1.8274         estimate D2E/DX2                !
 ! R28   R(14,15)                1.3962         estimate D2E/DX2                !
 ! R29   R(14,65)                1.0937         estimate D2E/DX2                !
 ! R30   R(15,16)                1.3942         estimate D2E/DX2                !
 ! R31   R(15,45)                1.0928         estimate D2E/DX2                !
 ! R32   R(16,17)                1.397          estimate D2E/DX2                !
 ! R33   R(16,46)                1.0929         estimate D2E/DX2                !
 ! R34   R(17,18)                1.3922         estimate D2E/DX2                !
 ! R35   R(17,47)                1.0931         estimate D2E/DX2                !
 ! R36   R(18,48)                1.0959         estimate D2E/DX2                !
 ! R37   R(19,20)                1.4021         estimate D2E/DX2                !
 ! R38   R(19,24)                1.4023         estimate D2E/DX2                !
 ! R39   R(19,62)                1.8256         estimate D2E/DX2                !
 ! R40   R(20,21)                1.3942         estimate D2E/DX2                !
 ! R41   R(20,64)                1.0954         estimate D2E/DX2                !
 ! R42   R(21,22)                1.395          estimate D2E/DX2                !
 ! R43   R(21,49)                1.0925         estimate D2E/DX2                !
 ! R44   R(22,23)                1.396          estimate D2E/DX2                !
 ! R45   R(22,50)                1.0926         estimate D2E/DX2                !
 ! R46   R(23,24)                1.3939         estimate D2E/DX2                !
 ! R47   R(23,51)                1.0926         estimate D2E/DX2                !
 ! R48   R(24,52)                1.0941         estimate D2E/DX2                !
 ! R49   R(25,26)                1.4062         estimate D2E/DX2                !
 ! R50   R(25,30)                1.4003         estimate D2E/DX2                !
 ! R51   R(25,63)                1.825          estimate D2E/DX2                !
 ! R52   R(26,27)                1.3914         estimate D2E/DX2                !
 ! R53   R(26,67)                1.0958         estimate D2E/DX2                !
 ! R54   R(27,28)                1.3977         estimate D2E/DX2                !
 ! R55   R(27,53)                1.0929         estimate D2E/DX2                !
 ! R56   R(28,29)                1.3935         estimate D2E/DX2                !
 ! R57   R(28,54)                1.0925         estimate D2E/DX2                !
 ! R58   R(29,30)                1.3968         estimate D2E/DX2                !
 ! R59   R(29,55)                1.0927         estimate D2E/DX2                !
 ! R60   R(30,56)                1.0935         estimate D2E/DX2                !
 ! R61   R(31,32)                1.4006         estimate D2E/DX2                !
 ! R62   R(31,36)                1.4026         estimate D2E/DX2                !
 ! R63   R(31,63)                1.8254         estimate D2E/DX2                !
 ! R64   R(32,33)                1.3949         estimate D2E/DX2                !
 ! R65   R(32,66)                1.0962         estimate D2E/DX2                !
 ! R66   R(33,34)                1.3945         estimate D2E/DX2                !
 ! R67   R(33,57)                1.0929         estimate D2E/DX2                !
 ! R68   R(34,35)                1.397          estimate D2E/DX2                !
 ! R69   R(34,58)                1.0927         estimate D2E/DX2                !
 ! R70   R(35,36)                1.3931         estimate D2E/DX2                !
 ! R71   R(35,59)                1.0927         estimate D2E/DX2                !
 ! R72   R(36,60)                1.0944         estimate D2E/DX2                !
 ! R73   R(62,68)                2.2711         estimate D2E/DX2                !
 ! R74   R(63,68)                2.2948         estimate D2E/DX2                !
 ! R75   R(68,77)                2.1098         estimate D2E/DX2                !
 ! R76   R(68,82)                2.1402         estimate D2E/DX2                !
 ! R77   R(69,70)                1.3979         estimate D2E/DX2                !
 ! R78   R(69,77)                1.3532         estimate D2E/DX2                !
 ! R79   R(69,79)                1.4569         estimate D2E/DX2                !
 ! R80   R(70,71)                1.39           estimate D2E/DX2                !
 ! R81   R(70,74)                1.0914         estimate D2E/DX2                !
 ! R82   R(71,72)                1.3947         estimate D2E/DX2                !
 ! R83   R(71,78)                1.0917         estimate D2E/DX2                !
 ! R84   R(72,73)                1.3904         estimate D2E/DX2                !
 ! R85   R(72,75)                1.0907         estimate D2E/DX2                !
 ! R86   R(73,76)                1.0947         estimate D2E/DX2                !
 ! R87   R(73,77)                1.3382         estimate D2E/DX2                !
 ! R88   R(79,80)                1.3816         estimate D2E/DX2                !
 ! R89   R(79,82)                1.3641         estimate D2E/DX2                !
 ! R90   R(80,81)                1.0848         estimate D2E/DX2                !
 ! R91   R(80,84)                1.3566         estimate D2E/DX2                !
 ! R92   R(82,83)                1.2965         estimate D2E/DX2                !
 ! R93   R(83,84)                1.3479         estimate D2E/DX2                !
 ! R94   R(84,85)                1.4214         estimate D2E/DX2                !
 ! R95   R(85,86)                1.3954         estimate D2E/DX2                !
 ! R96   R(85,87)                1.3982         estimate D2E/DX2                !
 ! R97   R(86,88)                1.392          estimate D2E/DX2                !
 ! R98   R(86,89)                1.0912         estimate D2E/DX2                !
 ! R99   R(87,90)                1.3892         estimate D2E/DX2                !
 ! R100  R(87,91)                1.0905         estimate D2E/DX2                !
 ! R101  R(88,92)                1.4012         estimate D2E/DX2                !
 ! R102  R(88,93)                1.093          estimate D2E/DX2                !
 ! R103  R(90,92)                1.4038         estimate D2E/DX2                !
 ! R104  R(90,94)                1.0934         estimate D2E/DX2                !
 ! R105  R(92,95)                1.4934         estimate D2E/DX2                !
 ! R106  R(95,96)                1.1013         estimate D2E/DX2                !
 ! R107  R(95,97)                1.0972         estimate D2E/DX2                !
 ! R108  R(95,98)                1.0987         estimate D2E/DX2                !
 ! A1    A(2,1,6)              118.1447         estimate D2E/DX2                !
 ! A2    A(2,1,62)             117.3635         estimate D2E/DX2                !
 ! A3    A(6,1,62)             123.8853         estimate D2E/DX2                !
 ! A4    A(1,2,3)              121.3951         estimate D2E/DX2                !
 ! A5    A(1,2,61)             115.9838         estimate D2E/DX2                !
 ! A6    A(3,2,61)             122.613          estimate D2E/DX2                !
 ! A7    A(2,3,4)              119.2153         estimate D2E/DX2                !
 ! A8    A(2,3,37)             119.9782         estimate D2E/DX2                !
 ! A9    A(4,3,37)             120.8059         estimate D2E/DX2                !
 ! A10   A(3,4,5)              120.4683         estimate D2E/DX2                !
 ! A11   A(3,4,38)             119.2896         estimate D2E/DX2                !
 ! A12   A(5,4,38)             120.242          estimate D2E/DX2                !
 ! A13   A(4,5,6)              119.8336         estimate D2E/DX2                !
 ! A14   A(4,5,39)             120.2996         estimate D2E/DX2                !
 ! A15   A(6,5,39)             119.8629         estimate D2E/DX2                !
 ! A16   A(1,6,5)              120.9249         estimate D2E/DX2                !
 ! A17   A(1,6,40)             119.5338         estimate D2E/DX2                !
 ! A18   A(5,6,40)             119.5263         estimate D2E/DX2                !
 ! A19   A(8,7,12)             117.7389         estimate D2E/DX2                !
 ! A20   A(8,7,63)             118.5687         estimate D2E/DX2                !
 ! A21   A(12,7,63)            123.5303         estimate D2E/DX2                !
 ! A22   A(7,8,9)              121.6276         estimate D2E/DX2                !
 ! A23   A(7,8,61)             119.74           estimate D2E/DX2                !
 ! A24   A(9,8,61)             118.5374         estimate D2E/DX2                !
 ! A25   A(8,9,10)             119.492          estimate D2E/DX2                !
 ! A26   A(8,9,41)             118.9023         estimate D2E/DX2                !
 ! A27   A(10,9,41)            121.6057         estimate D2E/DX2                !
 ! A28   A(9,10,11)            120.0182         estimate D2E/DX2                !
 ! A29   A(9,10,42)            119.6937         estimate D2E/DX2                !
 ! A30   A(11,10,42)           120.288          estimate D2E/DX2                !
 ! A31   A(10,11,12)           120.0833         estimate D2E/DX2                !
 ! A32   A(10,11,43)           120.2036         estimate D2E/DX2                !
 ! A33   A(12,11,43)           119.7114         estimate D2E/DX2                !
 ! A34   A(7,12,11)            121.0275         estimate D2E/DX2                !
 ! A35   A(7,12,44)            119.4251         estimate D2E/DX2                !
 ! A36   A(11,12,44)           119.5434         estimate D2E/DX2                !
 ! A37   A(14,13,18)           119.1835         estimate D2E/DX2                !
 ! A38   A(14,13,62)           123.4015         estimate D2E/DX2                !
 ! A39   A(18,13,62)           117.3146         estimate D2E/DX2                !
 ! A40   A(13,14,15)           120.2005         estimate D2E/DX2                !
 ! A41   A(13,14,65)           120.1879         estimate D2E/DX2                !
 ! A42   A(15,14,65)           119.6113         estimate D2E/DX2                !
 ! A43   A(14,15,16)           120.3003         estimate D2E/DX2                !
 ! A44   A(14,15,45)           119.6022         estimate D2E/DX2                !
 ! A45   A(16,15,45)           120.0975         estimate D2E/DX2                !
 ! A46   A(15,16,17)           119.8053         estimate D2E/DX2                !
 ! A47   A(15,16,46)           120.1207         estimate D2E/DX2                !
 ! A48   A(17,16,46)           120.0733         estimate D2E/DX2                !
 ! A49   A(16,17,18)           120.014          estimate D2E/DX2                !
 ! A50   A(16,17,47)           120.1622         estimate D2E/DX2                !
 ! A51   A(18,17,47)           119.8216         estimate D2E/DX2                !
 ! A52   A(13,18,17)           120.4936         estimate D2E/DX2                !
 ! A53   A(13,18,48)           119.702          estimate D2E/DX2                !
 ! A54   A(17,18,48)           119.8035         estimate D2E/DX2                !
 ! A55   A(20,19,24)           119.2553         estimate D2E/DX2                !
 ! A56   A(20,19,62)           118.1129         estimate D2E/DX2                !
 ! A57   A(24,19,62)           122.6243         estimate D2E/DX2                !
 ! A58   A(19,20,21)           120.4607         estimate D2E/DX2                !
 ! A59   A(19,20,64)           119.4787         estimate D2E/DX2                !
 ! A60   A(21,20,64)           120.0606         estimate D2E/DX2                !
 ! A61   A(20,21,22)           119.9281         estimate D2E/DX2                !
 ! A62   A(20,21,49)           119.8935         estimate D2E/DX2                !
 ! A63   A(22,21,49)           120.1764         estimate D2E/DX2                !
 ! A64   A(21,22,23)           119.9728         estimate D2E/DX2                !
 ! A65   A(21,22,50)           120.0287         estimate D2E/DX2                !
 ! A66   A(23,22,50)           119.9978         estimate D2E/DX2                !
 ! A67   A(22,23,24)           120.208          estimate D2E/DX2                !
 ! A68   A(22,23,51)           120.0558         estimate D2E/DX2                !
 ! A69   A(24,23,51)           119.7359         estimate D2E/DX2                !
 ! A70   A(19,24,23)           120.1706         estimate D2E/DX2                !
 ! A71   A(19,24,52)           120.0361         estimate D2E/DX2                !
 ! A72   A(23,24,52)           119.7927         estimate D2E/DX2                !
 ! A73   A(26,25,30)           119.0565         estimate D2E/DX2                !
 ! A74   A(26,25,63)           117.3634         estimate D2E/DX2                !
 ! A75   A(30,25,63)           123.126          estimate D2E/DX2                !
 ! A76   A(25,26,27)           120.534          estimate D2E/DX2                !
 ! A77   A(25,26,67)           119.6534         estimate D2E/DX2                !
 ! A78   A(27,26,67)           119.8122         estimate D2E/DX2                !
 ! A79   A(26,27,28)           120.0697         estimate D2E/DX2                !
 ! A80   A(26,27,53)           119.7642         estimate D2E/DX2                !
 ! A81   A(28,27,53)           120.1641         estimate D2E/DX2                !
 ! A82   A(27,28,29)           119.7439         estimate D2E/DX2                !
 ! A83   A(27,28,54)           120.122          estimate D2E/DX2                !
 ! A84   A(29,28,54)           120.134          estimate D2E/DX2                !
 ! A85   A(28,29,30)           120.383          estimate D2E/DX2                !
 ! A86   A(28,29,55)           120.1034         estimate D2E/DX2                !
 ! A87   A(30,29,55)           119.5135         estimate D2E/DX2                !
 ! A88   A(25,30,29)           120.2064         estimate D2E/DX2                !
 ! A89   A(25,30,56)           120.276          estimate D2E/DX2                !
 ! A90   A(29,30,56)           119.5172         estimate D2E/DX2                !
 ! A91   A(32,31,36)           119.437          estimate D2E/DX2                !
 ! A92   A(32,31,63)           118.2182         estimate D2E/DX2                !
 ! A93   A(36,31,63)           122.3447         estimate D2E/DX2                !
 ! A94   A(31,32,33)           120.3638         estimate D2E/DX2                !
 ! A95   A(31,32,66)           119.3729         estimate D2E/DX2                !
 ! A96   A(33,32,66)           120.2601         estimate D2E/DX2                !
 ! A97   A(32,33,34)           119.9057         estimate D2E/DX2                !
 ! A98   A(32,33,57)           119.8471         estimate D2E/DX2                !
 ! A99   A(34,33,57)           120.245          estimate D2E/DX2                !
 ! A100  A(33,34,35)           120.0459         estimate D2E/DX2                !
 ! A101  A(33,34,58)           120.008          estimate D2E/DX2                !
 ! A102  A(35,34,58)           119.9456         estimate D2E/DX2                !
 ! A103  A(34,35,36)           120.1568         estimate D2E/DX2                !
 ! A104  A(34,35,59)           120.0544         estimate D2E/DX2                !
 ! A105  A(36,35,59)           119.7887         estimate D2E/DX2                !
 ! A106  A(31,36,35)           120.0904         estimate D2E/DX2                !
 ! A107  A(31,36,60)           120.0649         estimate D2E/DX2                !
 ! A108  A(35,36,60)           119.8447         estimate D2E/DX2                !
 ! A109  A(2,61,8)             120.0076         estimate D2E/DX2                !
 ! A110  A(1,62,13)            106.1327         estimate D2E/DX2                !
 ! A111  A(1,62,19)            103.9219         estimate D2E/DX2                !
 ! A112  A(1,62,68)            108.1451         estimate D2E/DX2                !
 ! A113  A(13,62,19)           104.3967         estimate D2E/DX2                !
 ! A114  A(13,62,68)           111.0981         estimate D2E/DX2                !
 ! A115  A(19,62,68)           121.969          estimate D2E/DX2                !
 ! A116  A(7,63,25)            104.3173         estimate D2E/DX2                !
 ! A117  A(7,63,31)            104.9961         estimate D2E/DX2                !
 ! A118  A(7,63,68)            109.1481         estimate D2E/DX2                !
 ! A119  A(25,63,31)           105.5064         estimate D2E/DX2                !
 ! A120  A(25,63,68)           111.2904         estimate D2E/DX2                !
 ! A121  A(31,63,68)           120.3005         estimate D2E/DX2                !
 ! A122  A(62,68,63)           115.4048         estimate D2E/DX2                !
 ! A123  A(62,68,77)           129.8216         estimate D2E/DX2                !
 ! A124  A(62,68,82)           105.3131         estimate D2E/DX2                !
 ! A125  A(63,68,77)           109.7035         estimate D2E/DX2                !
 ! A126  A(63,68,82)           109.1748         estimate D2E/DX2                !
 ! A127  A(77,68,82)            78.4933         estimate D2E/DX2                !
 ! A128  A(70,69,77)           121.8775         estimate D2E/DX2                !
 ! A129  A(70,69,79)           123.4417         estimate D2E/DX2                !
 ! A130  A(77,69,79)           114.651          estimate D2E/DX2                !
 ! A131  A(69,70,71)           118.9251         estimate D2E/DX2                !
 ! A132  A(69,70,74)           119.9286         estimate D2E/DX2                !
 ! A133  A(71,70,74)           121.1406         estimate D2E/DX2                !
 ! A134  A(70,71,72)           119.05           estimate D2E/DX2                !
 ! A135  A(70,71,78)           120.2726         estimate D2E/DX2                !
 ! A136  A(72,71,78)           120.6754         estimate D2E/DX2                !
 ! A137  A(71,72,73)           118.5357         estimate D2E/DX2                !
 ! A138  A(71,72,75)           121.4353         estimate D2E/DX2                !
 ! A139  A(73,72,75)           120.0288         estimate D2E/DX2                !
 ! A140  A(72,73,76)           120.8737         estimate D2E/DX2                !
 ! A141  A(72,73,77)           122.913          estimate D2E/DX2                !
 ! A142  A(76,73,77)           116.2129         estimate D2E/DX2                !
 ! A143  A(68,77,69)           115.4835         estimate D2E/DX2                !
 ! A144  A(68,77,73)           125.5222         estimate D2E/DX2                !
 ! A145  A(69,77,73)           118.6866         estimate D2E/DX2                !
 ! A146  A(69,79,80)           133.9687         estimate D2E/DX2                !
 ! A147  A(69,79,82)           118.8688         estimate D2E/DX2                !
 ! A148  A(80,79,82)           107.1616         estimate D2E/DX2                !
 ! A149  A(79,80,81)           132.4148         estimate D2E/DX2                !
 ! A150  A(79,80,84)           104.4713         estimate D2E/DX2                !
 ! A151  A(81,80,84)           123.0945         estimate D2E/DX2                !
 ! A152  A(68,82,79)           111.408          estimate D2E/DX2                !
 ! A153  A(68,82,83)           136.5702         estimate D2E/DX2                !
 ! A154  A(79,82,83)           110.5434         estimate D2E/DX2                !
 ! A155  A(82,83,84)           106.7964         estimate D2E/DX2                !
 ! A156  A(80,84,83)           111.0262         estimate D2E/DX2                !
 ! A157  A(80,84,85)           128.7957         estimate D2E/DX2                !
 ! A158  A(83,84,85)           120.175          estimate D2E/DX2                !
 ! A159  A(84,85,86)           120.192          estimate D2E/DX2                !
 ! A160  A(84,85,87)           119.4591         estimate D2E/DX2                !
 ! A161  A(86,85,87)           120.3476         estimate D2E/DX2                !
 ! A162  A(85,86,88)           119.3948         estimate D2E/DX2                !
 ! A163  A(85,86,89)           120.8264         estimate D2E/DX2                !
 ! A164  A(88,86,89)           119.7771         estimate D2E/DX2                !
 ! A165  A(85,87,90)           119.3089         estimate D2E/DX2                !
 ! A166  A(85,87,91)           119.8118         estimate D2E/DX2                !
 ! A167  A(90,87,91)           120.8766         estimate D2E/DX2                !
 ! A168  A(86,88,92)           121.5794         estimate D2E/DX2                !
 ! A169  A(86,88,93)           118.9754         estimate D2E/DX2                !
 ! A170  A(92,88,93)           119.4448         estimate D2E/DX2                !
 ! A171  A(87,90,92)           121.6726         estimate D2E/DX2                !
 ! A172  A(87,90,94)           118.972          estimate D2E/DX2                !
 ! A173  A(92,90,94)           119.354          estimate D2E/DX2                !
 ! A174  A(88,92,90)           117.6954         estimate D2E/DX2                !
 ! A175  A(88,92,95)           121.3954         estimate D2E/DX2                !
 ! A176  A(90,92,95)           120.9021         estimate D2E/DX2                !
 ! A177  A(92,95,96)           111.1593         estimate D2E/DX2                !
 ! A178  A(92,95,97)           111.9539         estimate D2E/DX2                !
 ! A179  A(92,95,98)           111.7398         estimate D2E/DX2                !
 ! A180  A(96,95,97)           107.1479         estimate D2E/DX2                !
 ! A181  A(96,95,98)           106.3018         estimate D2E/DX2                !
 ! A182  A(97,95,98)           108.2571         estimate D2E/DX2                !
 ! D1    D(6,1,2,3)              1.491          estimate D2E/DX2                !
 ! D2    D(6,1,2,61)          -177.4978         estimate D2E/DX2                !
 ! D3    D(62,1,2,3)          -169.9329         estimate D2E/DX2                !
 ! D4    D(62,1,2,61)           11.0783         estimate D2E/DX2                !
 ! D5    D(2,1,6,5)             -0.9456         estimate D2E/DX2                !
 ! D6    D(2,1,6,40)          -179.5325         estimate D2E/DX2                !
 ! D7    D(62,1,6,5)           169.8745         estimate D2E/DX2                !
 ! D8    D(62,1,6,40)           -8.7124         estimate D2E/DX2                !
 ! D9    D(2,1,62,13)          -77.9087         estimate D2E/DX2                !
 ! D10   D(2,1,62,19)          172.3143         estimate D2E/DX2                !
 ! D11   D(2,1,62,68)           41.3745         estimate D2E/DX2                !
 ! D12   D(6,1,62,13)          111.205          estimate D2E/DX2                !
 ! D13   D(6,1,62,19)            1.428          estimate D2E/DX2                !
 ! D14   D(6,1,62,68)         -129.5119         estimate D2E/DX2                !
 ! D15   D(1,2,3,4)             -0.8225         estimate D2E/DX2                !
 ! D16   D(1,2,3,37)           178.9078         estimate D2E/DX2                !
 ! D17   D(61,2,3,4)           178.0983         estimate D2E/DX2                !
 ! D18   D(61,2,3,37)           -2.1714         estimate D2E/DX2                !
 ! D19   D(1,2,61,8)          -153.4077         estimate D2E/DX2                !
 ! D20   D(3,2,61,8)            27.617          estimate D2E/DX2                !
 ! D21   D(2,3,4,5)             -0.4179         estimate D2E/DX2                !
 ! D22   D(2,3,4,38)           179.7086         estimate D2E/DX2                !
 ! D23   D(37,3,4,5)           179.8541         estimate D2E/DX2                !
 ! D24   D(37,3,4,38)           -0.0194         estimate D2E/DX2                !
 ! D25   D(3,4,5,6)              0.9499         estimate D2E/DX2                !
 ! D26   D(3,4,5,39)          -179.7718         estimate D2E/DX2                !
 ! D27   D(38,4,5,6)          -179.1778         estimate D2E/DX2                !
 ! D28   D(38,4,5,39)            0.1005         estimate D2E/DX2                !
 ! D29   D(4,5,6,1)             -0.2499         estimate D2E/DX2                !
 ! D30   D(4,5,6,40)           178.3371         estimate D2E/DX2                !
 ! D31   D(39,5,6,1)          -179.5313         estimate D2E/DX2                !
 ! D32   D(39,5,6,40)           -0.9443         estimate D2E/DX2                !
 ! D33   D(12,7,8,9)             1.1608         estimate D2E/DX2                !
 ! D34   D(12,7,8,61)          177.5654         estimate D2E/DX2                !
 ! D35   D(63,7,8,9)          -174.3767         estimate D2E/DX2                !
 ! D36   D(63,7,8,61)            2.0279         estimate D2E/DX2                !
 ! D37   D(8,7,12,11)           -0.3747         estimate D2E/DX2                !
 ! D38   D(8,7,12,44)         -179.6529         estimate D2E/DX2                !
 ! D39   D(63,7,12,11)         174.9232         estimate D2E/DX2                !
 ! D40   D(63,7,12,44)          -4.355          estimate D2E/DX2                !
 ! D41   D(8,7,63,25)          158.2873         estimate D2E/DX2                !
 ! D42   D(8,7,63,31)          -90.9799         estimate D2E/DX2                !
 ! D43   D(8,7,63,68)           39.2553         estimate D2E/DX2                !
 ! D44   D(12,7,63,25)         -16.9739         estimate D2E/DX2                !
 ! D45   D(12,7,63,31)          93.7589         estimate D2E/DX2                !
 ! D46   D(12,7,63,68)        -136.006          estimate D2E/DX2                !
 ! D47   D(7,8,9,10)            -0.9776         estimate D2E/DX2                !
 ! D48   D(7,8,9,41)           179.0295         estimate D2E/DX2                !
 ! D49   D(61,8,9,10)         -177.4241         estimate D2E/DX2                !
 ! D50   D(61,8,9,41)            2.583          estimate D2E/DX2                !
 ! D51   D(7,8,61,2)            79.4094         estimate D2E/DX2                !
 ! D52   D(9,8,61,2)          -104.0752         estimate D2E/DX2                !
 ! D53   D(8,9,10,11)           -0.013          estimate D2E/DX2                !
 ! D54   D(8,9,10,42)         -179.945          estimate D2E/DX2                !
 ! D55   D(41,9,10,11)         179.9796         estimate D2E/DX2                !
 ! D56   D(41,9,10,42)           0.0477         estimate D2E/DX2                !
 ! D57   D(9,10,11,12)           0.7811         estimate D2E/DX2                !
 ! D58   D(9,10,11,43)        -179.7042         estimate D2E/DX2                !
 ! D59   D(42,10,11,12)       -179.2873         estimate D2E/DX2                !
 ! D60   D(42,10,11,43)          0.2274         estimate D2E/DX2                !
 ! D61   D(10,11,12,7)          -0.5807         estimate D2E/DX2                !
 ! D62   D(10,11,12,44)        178.6966         estimate D2E/DX2                !
 ! D63   D(43,11,12,7)         179.9022         estimate D2E/DX2                !
 ! D64   D(43,11,12,44)         -0.8205         estimate D2E/DX2                !
 ! D65   D(18,13,14,15)          0.2442         estimate D2E/DX2                !
 ! D66   D(18,13,14,65)       -179.9474         estimate D2E/DX2                !
 ! D67   D(62,13,14,15)        176.4996         estimate D2E/DX2                !
 ! D68   D(62,13,14,65)         -3.692          estimate D2E/DX2                !
 ! D69   D(14,13,18,17)         -0.5821         estimate D2E/DX2                !
 ! D70   D(14,13,18,48)        179.0856         estimate D2E/DX2                !
 ! D71   D(62,13,18,17)       -177.0639         estimate D2E/DX2                !
 ! D72   D(62,13,18,48)          2.6037         estimate D2E/DX2                !
 ! D73   D(14,13,62,1)           2.9772         estimate D2E/DX2                !
 ! D74   D(14,13,62,19)        112.418          estimate D2E/DX2                !
 ! D75   D(14,13,62,68)       -114.351          estimate D2E/DX2                !
 ! D76   D(18,13,62,1)         179.2977         estimate D2E/DX2                !
 ! D77   D(18,13,62,19)        -71.2615         estimate D2E/DX2                !
 ! D78   D(18,13,62,68)         61.9696         estimate D2E/DX2                !
 ! D79   D(13,14,15,16)          0.049          estimate D2E/DX2                !
 ! D80   D(13,14,15,45)        179.9717         estimate D2E/DX2                !
 ! D81   D(65,14,15,16)       -179.7605         estimate D2E/DX2                !
 ! D82   D(65,14,15,45)          0.1623         estimate D2E/DX2                !
 ! D83   D(14,15,16,17)         -0.0107         estimate D2E/DX2                !
 ! D84   D(14,15,16,46)       -179.7065         estimate D2E/DX2                !
 ! D85   D(45,15,16,17)       -179.933          estimate D2E/DX2                !
 ! D86   D(45,15,16,46)          0.3711         estimate D2E/DX2                !
 ! D87   D(15,16,17,18)         -0.3252         estimate D2E/DX2                !
 ! D88   D(15,16,17,47)       -179.7877         estimate D2E/DX2                !
 ! D89   D(46,16,17,18)        179.3708         estimate D2E/DX2                !
 ! D90   D(46,16,17,47)         -0.0917         estimate D2E/DX2                !
 ! D91   D(16,17,18,13)          0.625          estimate D2E/DX2                !
 ! D92   D(16,17,18,48)       -179.0423         estimate D2E/DX2                !
 ! D93   D(47,17,18,13)       -179.9107         estimate D2E/DX2                !
 ! D94   D(47,17,18,48)          0.422          estimate D2E/DX2                !
 ! D95   D(24,19,20,21)         -0.7521         estimate D2E/DX2                !
 ! D96   D(24,19,20,64)        179.2105         estimate D2E/DX2                !
 ! D97   D(62,19,20,21)        178.2788         estimate D2E/DX2                !
 ! D98   D(62,19,20,64)         -1.7586         estimate D2E/DX2                !
 ! D99   D(20,19,24,23)          0.2854         estimate D2E/DX2                !
 ! D100  D(20,19,24,52)       -179.9799         estimate D2E/DX2                !
 ! D101  D(62,19,24,23)       -178.6997         estimate D2E/DX2                !
 ! D102  D(62,19,24,52)          1.035          estimate D2E/DX2                !
 ! D103  D(20,19,62,1)         -96.6212         estimate D2E/DX2                !
 ! D104  D(20,19,62,13)        152.3288         estimate D2E/DX2                !
 ! D105  D(20,19,62,68)         25.5816         estimate D2E/DX2                !
 ! D106  D(24,19,62,1)          82.375          estimate D2E/DX2                !
 ! D107  D(24,19,62,13)        -28.6751         estimate D2E/DX2                !
 ! D108  D(24,19,62,68)       -155.4223         estimate D2E/DX2                !
 ! D109  D(19,20,21,22)          0.6892         estimate D2E/DX2                !
 ! D110  D(19,20,21,49)       -179.8309         estimate D2E/DX2                !
 ! D111  D(64,20,21,22)       -179.2732         estimate D2E/DX2                !
 ! D112  D(64,20,21,49)          0.2067         estimate D2E/DX2                !
 ! D113  D(20,21,22,23)         -0.1546         estimate D2E/DX2                !
 ! D114  D(20,21,22,50)        179.5575         estimate D2E/DX2                !
 ! D115  D(49,21,22,23)       -179.633          estimate D2E/DX2                !
 ! D116  D(49,21,22,50)          0.0791         estimate D2E/DX2                !
 ! D117  D(21,22,23,24)         -0.3101         estimate D2E/DX2                !
 ! D118  D(21,22,23,51)        179.8604         estimate D2E/DX2                !
 ! D119  D(50,22,23,24)        179.9777         estimate D2E/DX2                !
 ! D120  D(50,22,23,51)          0.1482         estimate D2E/DX2                !
 ! D121  D(22,23,24,19)          0.2424         estimate D2E/DX2                !
 ! D122  D(22,23,24,52)       -179.493          estimate D2E/DX2                !
 ! D123  D(51,23,24,19)       -179.9276         estimate D2E/DX2                !
 ! D124  D(51,23,24,52)          0.337          estimate D2E/DX2                !
 ! D125  D(30,25,26,27)         -0.8944         estimate D2E/DX2                !
 ! D126  D(30,25,26,67)        178.8507         estimate D2E/DX2                !
 ! D127  D(63,25,26,27)       -173.4067         estimate D2E/DX2                !
 ! D128  D(63,25,26,67)          6.3384         estimate D2E/DX2                !
 ! D129  D(26,25,30,29)          0.3362         estimate D2E/DX2                !
 ! D130  D(26,25,30,56)       -179.4224         estimate D2E/DX2                !
 ! D131  D(63,25,30,29)        172.393          estimate D2E/DX2                !
 ! D132  D(63,25,30,56)         -7.3656         estimate D2E/DX2                !
 ! D133  D(26,25,63,7)         -64.1717         estimate D2E/DX2                !
 ! D134  D(26,25,63,31)       -174.5333         estimate D2E/DX2                !
 ! D135  D(26,25,63,68)         53.3948         estimate D2E/DX2                !
 ! D136  D(30,25,63,7)         123.6459         estimate D2E/DX2                !
 ! D137  D(30,25,63,31)         13.2842         estimate D2E/DX2                !
 ! D138  D(30,25,63,68)       -118.7877         estimate D2E/DX2                !
 ! D139  D(25,26,27,28)          0.9466         estimate D2E/DX2                !
 ! D140  D(25,26,27,53)       -179.5689         estimate D2E/DX2                !
 ! D141  D(67,26,27,28)       -178.7981         estimate D2E/DX2                !
 ! D142  D(67,26,27,53)          0.6864         estimate D2E/DX2                !
 ! D143  D(26,27,28,29)         -0.4319         estimate D2E/DX2                !
 ! D144  D(26,27,28,54)        179.4502         estimate D2E/DX2                !
 ! D145  D(53,27,28,29)       -179.9142         estimate D2E/DX2                !
 ! D146  D(53,27,28,54)         -0.0321         estimate D2E/DX2                !
 ! D147  D(27,28,29,30)         -0.124          estimate D2E/DX2                !
 ! D148  D(27,28,29,55)        179.9959         estimate D2E/DX2                !
 ! D149  D(54,28,29,30)        179.9939         estimate D2E/DX2                !
 ! D150  D(54,28,29,55)          0.1138         estimate D2E/DX2                !
 ! D151  D(28,29,30,25)          0.168          estimate D2E/DX2                !
 ! D152  D(28,29,30,56)        179.9284         estimate D2E/DX2                !
 ! D153  D(55,29,30,25)       -179.9512         estimate D2E/DX2                !
 ! D154  D(55,29,30,56)         -0.1908         estimate D2E/DX2                !
 ! D155  D(36,31,32,33)         -0.2697         estimate D2E/DX2                !
 ! D156  D(36,31,32,66)        179.0774         estimate D2E/DX2                !
 ! D157  D(63,31,32,33)        179.6358         estimate D2E/DX2                !
 ! D158  D(63,31,32,66)         -1.017          estimate D2E/DX2                !
 ! D159  D(32,31,36,35)          0.1948         estimate D2E/DX2                !
 ! D160  D(32,31,36,60)       -179.7607         estimate D2E/DX2                !
 ! D161  D(63,31,36,35)       -179.7066         estimate D2E/DX2                !
 ! D162  D(63,31,36,60)          0.3378         estimate D2E/DX2                !
 ! D163  D(32,31,63,7)         140.081          estimate D2E/DX2                !
 ! D164  D(32,31,63,25)       -110.042          estimate D2E/DX2                !
 ! D165  D(32,31,63,68)         16.7248         estimate D2E/DX2                !
 ! D166  D(36,31,63,7)         -40.0164         estimate D2E/DX2                !
 ! D167  D(36,31,63,25)         69.8606         estimate D2E/DX2                !
 ! D168  D(36,31,63,68)       -163.3725         estimate D2E/DX2                !
 ! D169  D(31,32,33,34)          0.1994         estimate D2E/DX2                !
 ! D170  D(31,32,33,57)        179.6596         estimate D2E/DX2                !
 ! D171  D(66,32,33,34)       -179.142          estimate D2E/DX2                !
 ! D172  D(66,32,33,57)          0.3182         estimate D2E/DX2                !
 ! D173  D(32,33,34,35)         -0.0525         estimate D2E/DX2                !
 ! D174  D(32,33,34,58)        179.6826         estimate D2E/DX2                !
 ! D175  D(57,33,34,35)       -179.5106         estimate D2E/DX2                !
 ! D176  D(57,33,34,58)          0.2246         estimate D2E/DX2                !
 ! D177  D(33,34,35,36)         -0.0216         estimate D2E/DX2                !
 ! D178  D(33,34,35,59)        179.8777         estimate D2E/DX2                !
 ! D179  D(58,34,35,36)       -179.7569         estimate D2E/DX2                !
 ! D180  D(58,34,35,59)          0.1423         estimate D2E/DX2                !
 ! D181  D(34,35,36,31)         -0.0504         estimate D2E/DX2                !
 ! D182  D(34,35,36,60)        179.9053         estimate D2E/DX2                !
 ! D183  D(59,35,36,31)       -179.9499         estimate D2E/DX2                !
 ! D184  D(59,35,36,60)          0.0058         estimate D2E/DX2                !
 ! D185  D(1,62,68,63)           6.8896         estimate D2E/DX2                !
 ! D186  D(1,62,68,77)         158.7713         estimate D2E/DX2                !
 ! D187  D(1,62,68,82)        -113.5773         estimate D2E/DX2                !
 ! D188  D(13,62,68,63)        122.9844         estimate D2E/DX2                !
 ! D189  D(13,62,68,77)        -85.1339         estimate D2E/DX2                !
 ! D190  D(13,62,68,82)          2.5175         estimate D2E/DX2                !
 ! D191  D(19,62,68,63)       -113.3085         estimate D2E/DX2                !
 ! D192  D(19,62,68,77)         38.5732         estimate D2E/DX2                !
 ! D193  D(19,62,68,82)        126.2245         estimate D2E/DX2                !
 ! D194  D(7,63,68,62)         -79.4392         estimate D2E/DX2                !
 ! D195  D(7,63,68,77)         123.1726         estimate D2E/DX2                !
 ! D196  D(7,63,68,82)          38.9003         estimate D2E/DX2                !
 ! D197  D(25,63,68,62)        165.9623         estimate D2E/DX2                !
 ! D198  D(25,63,68,77)          8.5741         estimate D2E/DX2                !
 ! D199  D(25,63,68,82)        -75.6983         estimate D2E/DX2                !
 ! D200  D(31,63,68,62)         41.9031         estimate D2E/DX2                !
 ! D201  D(31,63,68,77)       -115.4851         estimate D2E/DX2                !
 ! D202  D(31,63,68,82)        160.2426         estimate D2E/DX2                !
 ! D203  D(62,68,77,69)         97.9051         estimate D2E/DX2                !
 ! D204  D(62,68,77,73)        -88.5821         estimate D2E/DX2                !
 ! D205  D(63,68,77,69)       -108.9795         estimate D2E/DX2                !
 ! D206  D(63,68,77,73)         64.5332         estimate D2E/DX2                !
 ! D207  D(82,68,77,69)         -2.5324         estimate D2E/DX2                !
 ! D208  D(82,68,77,73)        170.9803         estimate D2E/DX2                !
 ! D209  D(62,68,82,79)       -120.8088         estimate D2E/DX2                !
 ! D210  D(62,68,82,83)         43.4376         estimate D2E/DX2                !
 ! D211  D(63,68,82,79)        114.7093         estimate D2E/DX2                !
 ! D212  D(63,68,82,83)        -81.0443         estimate D2E/DX2                !
 ! D213  D(77,68,82,79)          7.6425         estimate D2E/DX2                !
 ! D214  D(77,68,82,83)        171.8888         estimate D2E/DX2                !
 ! D215  D(77,69,70,71)         -0.7575         estimate D2E/DX2                !
 ! D216  D(77,69,70,74)       -179.9014         estimate D2E/DX2                !
 ! D217  D(79,69,70,71)        177.1486         estimate D2E/DX2                !
 ! D218  D(79,69,70,74)         -1.9953         estimate D2E/DX2                !
 ! D219  D(70,69,77,68)        175.2378         estimate D2E/DX2                !
 ! D220  D(70,69,77,73)          1.2547         estimate D2E/DX2                !
 ! D221  D(79,69,77,68)         -2.8398         estimate D2E/DX2                !
 ! D222  D(79,69,77,73)       -176.8229         estimate D2E/DX2                !
 ! D223  D(70,69,79,80)         11.8212         estimate D2E/DX2                !
 ! D224  D(70,69,79,82)       -167.7981         estimate D2E/DX2                !
 ! D225  D(77,69,79,80)       -170.1351         estimate D2E/DX2                !
 ! D226  D(77,69,79,82)         10.2455         estimate D2E/DX2                !
 ! D227  D(69,70,71,72)         -0.2431         estimate D2E/DX2                !
 ! D228  D(69,70,71,78)       -179.7288         estimate D2E/DX2                !
 ! D229  D(74,70,71,72)        178.8901         estimate D2E/DX2                !
 ! D230  D(74,70,71,78)         -0.5957         estimate D2E/DX2                !
 ! D231  D(70,71,72,73)          0.7059         estimate D2E/DX2                !
 ! D232  D(70,71,72,75)       -179.4397         estimate D2E/DX2                !
 ! D233  D(78,71,72,73)       -179.8105         estimate D2E/DX2                !
 ! D234  D(78,71,72,75)          0.044          estimate D2E/DX2                !
 ! D235  D(71,72,73,76)       -179.985          estimate D2E/DX2                !
 ! D236  D(71,72,73,77)         -0.2109         estimate D2E/DX2                !
 ! D237  D(75,72,73,76)          0.1585         estimate D2E/DX2                !
 ! D238  D(75,72,73,77)        179.9325         estimate D2E/DX2                !
 ! D239  D(72,73,77,68)       -174.0894         estimate D2E/DX2                !
 ! D240  D(72,73,77,69)         -0.7657         estimate D2E/DX2                !
 ! D241  D(76,73,77,68)          5.6945         estimate D2E/DX2                !
 ! D242  D(76,73,77,69)        179.0182         estimate D2E/DX2                !
 ! D243  D(69,79,80,81)          1.9653         estimate D2E/DX2                !
 ! D244  D(69,79,80,84)       -179.6474         estimate D2E/DX2                !
 ! D245  D(82,79,80,81)       -178.3836         estimate D2E/DX2                !
 ! D246  D(82,79,80,84)          0.0037         estimate D2E/DX2                !
 ! D247  D(69,79,82,68)        -11.9854         estimate D2E/DX2                !
 ! D248  D(69,79,82,83)        179.512          estimate D2E/DX2                !
 ! D249  D(80,79,82,68)        168.3014         estimate D2E/DX2                !
 ! D250  D(80,79,82,83)         -0.2012         estimate D2E/DX2                !
 ! D251  D(79,80,84,83)          0.188          estimate D2E/DX2                !
 ! D252  D(79,80,84,85)       -179.1614         estimate D2E/DX2                !
 ! D253  D(81,80,84,83)        178.7669         estimate D2E/DX2                !
 ! D254  D(81,80,84,85)         -0.5825         estimate D2E/DX2                !
 ! D255  D(68,82,83,84)       -164.0266         estimate D2E/DX2                !
 ! D256  D(79,82,83,84)          0.313          estimate D2E/DX2                !
 ! D257  D(82,83,84,80)         -0.3148         estimate D2E/DX2                !
 ! D258  D(82,83,84,85)        179.0986         estimate D2E/DX2                !
 ! D259  D(80,84,85,86)        -13.2967         estimate D2E/DX2                !
 ! D260  D(80,84,85,87)        166.2903         estimate D2E/DX2                !
 ! D261  D(83,84,85,86)        167.4058         estimate D2E/DX2                !
 ! D262  D(83,84,85,87)        -13.0072         estimate D2E/DX2                !
 ! D263  D(84,85,86,88)        179.1547         estimate D2E/DX2                !
 ! D264  D(84,85,86,89)         -1.3313         estimate D2E/DX2                !
 ! D265  D(87,85,86,88)         -0.4286         estimate D2E/DX2                !
 ! D266  D(87,85,86,89)        179.0854         estimate D2E/DX2                !
 ! D267  D(84,85,87,90)       -179.369          estimate D2E/DX2                !
 ! D268  D(84,85,87,91)          0.0445         estimate D2E/DX2                !
 ! D269  D(86,85,87,90)          0.2173         estimate D2E/DX2                !
 ! D270  D(86,85,87,91)        179.6309         estimate D2E/DX2                !
 ! D271  D(85,86,88,92)          0.3632         estimate D2E/DX2                !
 ! D272  D(85,86,88,93)       -179.8736         estimate D2E/DX2                !
 ! D273  D(89,86,88,92)       -179.1559         estimate D2E/DX2                !
 ! D274  D(89,86,88,93)          0.6073         estimate D2E/DX2                !
 ! D275  D(85,87,90,92)          0.068          estimate D2E/DX2                !
 ! D276  D(85,87,90,94)        179.6389         estimate D2E/DX2                !
 ! D277  D(91,87,90,92)       -179.3392         estimate D2E/DX2                !
 ! D278  D(91,87,90,94)          0.2318         estimate D2E/DX2                !
 ! D279  D(86,88,92,90)         -0.0839         estimate D2E/DX2                !
 ! D280  D(86,88,92,95)        178.9557         estimate D2E/DX2                !
 ! D281  D(93,88,92,90)       -179.846          estimate D2E/DX2                !
 ! D282  D(93,88,92,95)         -0.8064         estimate D2E/DX2                !
 ! D283  D(87,90,92,88)         -0.1341         estimate D2E/DX2                !
 ! D284  D(87,90,92,95)       -179.1788         estimate D2E/DX2                !
 ! D285  D(94,90,92,88)       -179.7035         estimate D2E/DX2                !
 ! D286  D(94,90,92,95)          1.2519         estimate D2E/DX2                !
 ! D287  D(88,92,95,96)       -102.9529         estimate D2E/DX2                !
 ! D288  D(88,92,95,97)         16.8416         estimate D2E/DX2                !
 ! D289  D(88,92,95,98)        138.4676         estimate D2E/DX2                !
 ! D290  D(90,92,95,96)         76.0561         estimate D2E/DX2                !
 ! D291  D(90,92,95,97)       -164.1494         estimate D2E/DX2                !
 ! D292  D(90,92,95,98)        -42.5234         estimate D2E/DX2                !
 --------------------------------------------------------------------------------
 Trust Radius=3.00D-01 FncErr=1.00D-07 GrdErr=1.00D-06 EigMax=2.50D+02 EigMin=1.00D-04
 Number of steps in this run=    588 maximum allowed number of steps=    588.
 GradGradGradGradGradGradGradGradGradGradGradGradGradGradGradGradGradGrad

 Leave Link  103 at Mon Nov 20 10:42:41 2023, MaxMem=  2831155200 cpu:               0.0 elap:               0.0
 (Enter /opt/software/packages/g16/l202.exe)
 Symmetry turned off by external request.
 Stoichiometry    C50H40CuN4OP2
                          Input orientation:                          
 ---------------------------------------------------------------------
 Center     Atomic      Atomic             Coordinates (Angstroms)
 Number     Number       Type             X           Y           Z
 ---------------------------------------------------------------------
      1          6           0        1.466887    2.367975   -1.123158
      2          6           0        1.197738    1.479727   -2.182097
      3          6           0        1.962323    1.486293   -3.347418
      4          6           0        3.004561    2.403873   -3.472330
      5          6           0        3.274633    3.310806   -2.448235
      6          6           0        2.510315    3.288107   -1.281917
      7          6           0        0.846111   -1.665251   -2.147693
      8          6           0        0.100033   -0.583420   -2.651839
      9          6           0       -0.735703   -0.724649   -3.755729
     10          6           0       -0.825487   -1.959689   -4.394597
     11          6           0       -0.081005   -3.042851   -3.927323
     12          6           0        0.741111   -2.896141   -2.811334
     13          6           0       -1.102045    2.729982    0.218632
     14          6           0       -1.564008    3.256318   -0.992944
     15          6           0       -2.892994    3.664931   -1.119897
     16          6           0       -3.769455    3.552943   -0.041380
     17          6           0       -3.314870    3.029152    1.171329
     18          6           0       -1.991959    2.614437    1.298556
     19          6           0        1.370679    3.263839    1.608550
     20          6           0        2.398356    2.794657    2.438993
     21          6           0        3.052045    3.661867    3.313341
     22          6           0        2.673998    5.003267    3.375359
     23          6           0        1.644259    5.476085    2.559897
     24          6           0        0.995691    4.613242    1.677963
     25          6           0        2.041704   -3.117772    0.045725
     26          6           0        0.894069   -3.835733    0.426419
     27          6           0        1.009554   -5.073300    1.051684
     28          6           0        2.273051   -5.604791    1.324674
     29          6           0        3.415249   -4.894697    0.960133
     30          6           0        3.304103   -3.657236    0.321788
     31          6           0        3.449901   -0.869437   -1.139917
     32          6           0        4.085161    0.135370   -0.399375
     33          6           0        5.350988    0.590226   -0.768868
     34          6           0        5.987342    0.045703   -1.883812
     35          6           0        5.358443   -0.954712   -2.629013
     36          6           0        4.094936   -1.411746   -2.261124
     37          1           0        1.744387    0.774888   -4.147272
     38          1           0        3.607755    2.406892   -4.383321
     39          1           0        4.089257    4.030753   -2.550536
     40          1           0        2.743917    3.983282   -0.470986
     41          1           0       -1.306454    0.140438   -4.099711
     42          1           0       -1.479634   -2.073981   -5.261741
     43          1           0       -0.145382   -4.010873   -4.428649
     44          1           0        1.304404   -3.756671   -2.439676
     45          1           0       -3.243241    4.075006   -2.070413
     46          1           0       -4.810345    3.869233   -0.145457
     47          1           0       -3.997859    2.935511    2.019579
     48          1           0       -1.643118    2.189506    2.246564
     49          1           0        3.853418    3.286962    3.954296
     50          1           0        3.180285    5.682701    4.065164
     51          1           0        1.345525    6.525945    2.609005
     52          1           0        0.195138    4.992915    1.036009
     53          1           0        0.109163   -5.623720    1.335842
     54          1           0        2.364713   -6.572328    1.823672
     55          1           0        4.405991   -5.304676    1.170788
     56          1           0        4.209775   -3.111559    0.043032
     57          1           0        5.836543    1.378558   -0.188273
     58          1           0        6.976709    0.404412   -2.177797
     59          1           0        5.856091   -1.380074   -3.503845
     60          1           0        3.606291   -2.194595   -2.849493
     61          8           0        0.133165    0.633767   -2.001079
     62         15           0        0.590939    2.083733    0.454316
     63         15           0        1.798523   -1.427586   -0.598317
     64          1           0        2.685407    1.738369    2.397098
     65          1           0       -0.885181    3.352887   -1.845047
     66          1           0        3.573637    0.569178    0.467744
     67          1           0       -0.098542   -3.413989    0.232178
     68         29           0        0.564263   -0.151404    0.855717
     69          6           0       -0.953759   -1.648274    2.903685
     70          6           0       -1.257489   -2.439605    4.015238
     71          6           0       -0.237722   -2.782125    4.895508
     72          6           0        1.057072   -2.330696    4.640591
     73          6           0        1.275728   -1.539414    3.518414
     74          1           0       -2.279499   -2.789105    4.171953
     75          1           0        1.887925   -2.583706    5.300370
     76          1           0        2.276616   -1.164532    3.281785
     77          7           0        0.299777   -1.195245    2.670021
     78          1           0       -0.449426   -3.402833    5.768264
     79          6           0       -1.931633   -1.281567    1.887848
     80          6           0       -3.307826   -1.371367    1.804462
     81          1           0       -4.061541   -1.724061    2.500341
     82          7           0       -1.493226   -0.725114    0.722156
     83          7           0       -2.491768   -0.473040   -0.065453
     84          7           0       -3.607703   -0.859015    0.584623
     85          6           0       -4.882227   -0.690222   -0.021608
     86          6           0       -6.005345   -1.317037    0.519663
     87          6           0       -5.001803    0.115202   -1.158208
     88          6           0       -7.248405   -1.126094   -0.077065
     89          1           0       -5.918599   -1.959142    1.397658
     90          6           0       -6.251146    0.288628   -1.740419
     91          1           0       -4.119359    0.605747   -1.570343
     92          6           0       -7.400260   -0.323769   -1.215788
     93          1           0       -8.123871   -1.618667    0.353817
     94          1           0       -6.339310    0.924440   -2.625587
     95          6           0       -8.731981   -0.140226   -1.866187
     96          1           0       -8.815125   -0.748649   -2.780445
     97          1           0       -9.555792   -0.436077   -1.204706
     98          1           0       -8.894611    0.902037   -2.173486
 ---------------------------------------------------------------------
 Rotational constants (GHZ):           0.0554242           0.0411533           0.0367770
 Leave Link  202 at Mon Nov 20 10:42:41 2023, MaxMem=  2831155200 cpu:               0.1 elap:               0.0
 (Enter /opt/software/packages/g16/l301.exe)
 Standard basis: def2SVP (5D, 7F)
 Ernie: Thresh=  0.10000D-02 Tol=  0.10000D-05 Strict=F.
  1037 basis functions,  1810 primitive gaussians,  1099 cartesian basis functions
   217 alpha electrons      217 beta electrons
       nuclear repulsion energy      9999.7116917068 Hartrees.
 IExCor= 1009 DFT=T Ex=PBE Corr=PBE ExCW=0 ScaHFX=  0.000000
 ScaDFX=  1.000000  1.000000  1.000000  1.000000 ScalE2=  1.000000  1.000000
 IRadAn=      5 IRanWt=     -1 IRanGd=            0 ICorTp=0 IEmpDi=141
 NAtoms=   98 NActive=   98 NUniq=   98 SFac= 1.00D+00 NAtFMM=   60 NAOKFM=T Big=T
 Integral buffers will be    131072 words long.
 Raffenetti 2 integral format.
 Two-electron integral symmetry is turned off.
 R6Disp:  Grimme-D3(BJ) Dispersion energy=       -0.1869757019 Hartrees.
 Nuclear repulsion after empirical dispersion term =     9999.5247160049 Hartrees.
 Leave Link  301 at Mon Nov 20 10:42:41 2023, MaxMem=  2831155200 cpu:               0.1 elap:               0.1
 (Enter /opt/software/packages/g16/l302.exe)
 NPDir=0 NMtPBC=     1 NCelOv=     1 NCel=       1 NClECP=     1 NCelD=      1
         NCelK=      1 NCelE2=     1 NClLst=     1 CellRange=     0.0.
 One-electron integrals computed using PRISM.
   1 Symmetry operations used in ECPInt.
 ECPInt:  NShTT=  114003 NPrTT=  429196 LenC2=   89246 LenP2D=  205389.
 LDataN:  DoStor=T MaxTD1= 6 Len=  172
 NBasis=  1037 RedAO= T EigKep=  2.14D-04  NBF=  1037
 NBsUse=  1037 1.00D-06 EigRej= -1.00D+00 NBFU=  1037
 Precomputing XC quadrature grid using
 IXCGrd= 4 IRadAn=           5 IRanWt=          -1 IRanGd=           0 AccXCQ= 0.00D+00.
 Generated NRdTot=       0 NPtTot=           0 NUsed=           0 NTot=          32
 NSgBfM=  1023  1011  1018  1021  1023 MxSgAt=    98 MxSgA2=    98.
 Leave Link  302 at Mon Nov 20 10:42:44 2023, MaxMem=  2831155200 cpu:              23.8 elap:               2.6
 (Enter /opt/software/packages/g16/l303.exe)
 DipDrv:  MaxL=1.
 Leave Link  303 at Mon Nov 20 10:42:44 2023, MaxMem=  2831155200 cpu:               0.3 elap:               0.2
 (Enter /opt/software/packages/g16/l401.exe)
[...]
      2   0.331143D+00  0.564657D-01  0.143312D+00 -0.178362D+00  0.269152D+00
      3   0.116686D+00  0.205453D+00 -0.186436D+00 -0.228402D+00 -0.449218D+00
      4   0.367095D+00  0.962259D-01  0.100023D+00  0.228472D+00 -0.124963D+00
      5  -0.326739D-01 -0.529147D-02 -0.159413D-01  0.196016D-01 -0.319779D-01
      6  -0.158819D-01 -0.268357D-01  0.215899D-01  0.301096D-01  0.475447D-01
      7  -0.354471D-01 -0.934886D-02 -0.837655D-02 -0.218325D-01  0.112893D-01
      8  -0.978533D-01  0.228805D+00  0.405679D-01  0.717389D-01  0.149015D+00
      9  -0.251842D+00 -0.376158D-01  0.556831D-02  0.390453D-01  0.854130D-01
     10  -0.211766D+00 -0.104594D+00 -0.126965D+00  0.184505D+00  0.369124D+00
     11   0.415913D+00 -0.119103D+00 -0.221389D+00  0.264989D-01  0.166308D+00
     12  -0.871995D-03  0.127858D+00  0.129314D+00  0.339211D-01 -0.164086D+00
     13  -0.327169D+00  0.184654D-02  0.491139D-01 -0.202978D+00 -0.177706D-01
     14  -0.266490D-01  0.736087D-02  0.978134D-01 -0.606122D-01  0.869389D-01
     15  -0.520845D-01  0.128410D+00  0.989483D-01 -0.650889D-01  0.337121D-01
     16  -0.613815D-01  0.190328D+00  0.207100D+00  0.166445D+00  0.256524D+00
                11            12            13            14            15 
      1  -0.454159D+04 -0.454159D+04 -0.454159D+04 -0.454158D+04 -0.454158D+04
      2   0.220666D+00 -0.114678D-01  0.185431D-01 -0.332849D+00  0.512527D+00
      3  -0.831907D-01  0.198961D+00 -0.448729D+00 -0.278492D+00 -0.554337D-01
      4   0.271854D-01  0.612703D+00  0.535550D-01  0.144365D+00  0.657233D-01
      5  -0.265819D-01  0.283952D-02 -0.109454D-02  0.393224D-01 -0.599588D-01
      6   0.755305D-02 -0.223285D-01  0.529779D-01  0.305918D-01  0.584928D-02
      7  -0.352319D-03 -0.681127D-01 -0.391625D-02 -0.159507D-01 -0.857871D-02
      8   0.550390D-01  0.190913D+00  0.552285D-01  0.192451D+00 -0.608033D-01
      9   0.149990D+00  0.314792D+00  0.697772D-01  0.106505D+00  0.873886D-01
     10  -0.112942D+00 -0.133758D+00  0.345116D+00 -0.409089D+00  0.212306D+00
     11  -0.141587D+00 -0.729259D-01  0.863373D-01 -0.499219D-01  0.121902D+00
     12   0.406208D-01 -0.372791D+00 -0.156367D+00 -0.171566D+00 -0.277418D+00
     13   0.319387D-01  0.183206D+00  0.204959D-01  0.209079D+00  0.110617D-01
     14   0.372816D-01  0.103666D+00  0.750774D-01  0.451464D+00 -0.112588D+00
     15   0.915158D-01 -0.126530D+00 -0.481019D-01  0.103800D-01 -0.769728D-01
     16   0.151363D+00  0.187476D-01  0.191249D+00  0.162779D+00 -0.862861D-01
                16            17            18            19            20 
      1  -0.454158D+04 -0.454158D+04 -0.454158D+04 -0.454158D+04 -0.454158D+04
      2   0.397714D-01 -0.159042D-01  0.235334D-01 -0.446329D+00 -0.410684D+00
      3  -0.108831D+00 -0.674171D-01 -0.616531D-01 -0.394686D-01 -0.447396D-01
      4   0.981314D-01  0.247713D-01  0.155225D+00  0.174361D-01 -0.356582D+00
      5  -0.459114D-02  0.132064D-02 -0.416833D-02  0.507148D-01  0.486484D-01
      6   0.121225D-01  0.643835D-02  0.613303D-02  0.314946D-02  0.605854D-02
      7  -0.109670D-01 -0.338573D-02 -0.199709D-01 -0.406716D-03  0.437601D-01
      8   0.532193D-01  0.128280D+00 -0.857955D-01 -0.145343D+00  0.267319D+00
      9   0.848423D-01 -0.162257D-01  0.340607D-01  0.734424D+00  0.134173D+00
     10   0.178921D+00 -0.103340D+00  0.473135D-02  0.196725D+00  0.300165D+00
     11  -0.158930D-02  0.584472D-01 -0.562463D-01 -0.695939D+00 -0.221985D-01
     12   0.327619D-01 -0.167723D+00 -0.117759D+00  0.456857D-01  0.540844D-01
     13  -0.121558D+00  0.538246D-01  0.375609D-01  0.273093D+00 -0.494937D-01
     14  -0.730042D-01  0.215016D+00  0.917247D-01 -0.232261D-01 -0.749837D-01
     15   0.549053D-02 -0.110377D-01 -0.534625D-01 -0.842876D-01 -0.213403D-01
     16   0.458962D-01 -0.746895D-03  0.118637D-01 -0.180485D-01 -0.269825D-01
                21            22            23            24            25 
      1  -0.454158D+04 -0.454158D+04 -0.454158D+04 -0.454158D+04 -0.454157D+04
      2  -0.580718D+00  0.737129D-01 -0.598406D-02  0.192708D+00 -0.224259D+00
      3   0.520832D+00  0.582622D-01  0.237174D+00  0.219990D+00  0.166087D+00
      4   0.131351D+00  0.973770D-01 -0.949731D-02 -0.446206D+00 -0.126356D+00
      5   0.706399D-01 -0.860376D-02 -0.141810D-02 -0.224318D-01  0.317018D-01
      6  -0.625685D-01 -0.688027D-02 -0.290684D-01 -0.240688D-01 -0.215265D-01
      7  -0.147380D-01 -0.114801D-01  0.261602D-02  0.545085D-01  0.175939D-01
      8   0.864483D-01  0.442039D-01  0.107927D+00 -0.374492D-01 -0.185464D+00
      9   0.168201D-01 -0.158427D+00  0.240177D+00 -0.163672D+00 -0.235417D+00
     10  -0.326436D+00  0.102629D+00 -0.142574D+00  0.583238D-01 -0.103622D+00
     11  -0.106481D+00  0.158388D+00  0.121386D-01 -0.101821D+00  0.511498D-01
     12   0.177978D+00  0.214105D-01 -0.539130D-01  0.231936D+00  0.106774D+00
     13  -0.424062D-01 -0.129033D+00  0.950256D-01 -0.586561D-01 -0.171240D+00
     14  -0.912546D-01 -0.508359D-01 -0.360193D-01 -0.251245D+00 -0.194521D+00
     15   0.310391D-02  0.461938D-01  0.631088D-02  0.205253D+00 -0.454263D-01
     16   0.513834D-01  0.649327D-01  0.613797D-01  0.458348D-01 -0.277690D+00
                26            27            28            29            30 
      1  -0.454157D+04 -0.454157D+04 -0.454157D+04 -0.454157D+04 -0.454157D+04
      2   0.490140D-01  0.311009D+00  0.329474D-01  0.264042D+00 -0.812223D-01
      3   0.289637D+00  0.370944D-01 -0.888008D-01 -0.639655D+00  0.252374D+00
      4   0.481248D-01 -0.642863D-01  0.276741D-02  0.120787D-02 -0.296681D-02
      5  -0.610139D-02 -0.379295D-01 -0.399822D-02 -0.315258D-01  0.115415D-01
      6  -0.359553D-01 -0.641998D-02  0.123473D-01  0.794247D-01 -0.314668D-01
      7  -0.729391D-02  0.113824D-01  0.733832D-03  0.255607D-03 -0.578168D-03
      8   0.936225D-01  0.283987D+00 -0.138010D+00 -0.751587D-01  0.487236D-01
      9   0.379800D-01  0.583257D-02 -0.392335D-02 -0.837683D-01  0.111570D+00
     10  -0.137186D+00 -0.922893D-01 -0.809998D-01  0.141657D+00 -0.123783D+00
     11  -0.918720D-01 -0.674032D-01 -0.457675D-01 -0.726438D-01  0.454344D-01
     12   0.697724D-01 -0.247825D-03 -0.133221D+00 -0.206567D+00  0.989280D-01
     13   0.346898D-01 -0.648196D-02  0.913659D-01  0.117188D-01  0.114750D-01
     14  -0.144365D+00 -0.488275D-01  0.546437D-01  0.113146D+00 -0.360148D-01
     15   0.679781D-01  0.176312D+00 -0.281911D-01 -0.249204D-01  0.335829D-01
     16   0.473878D-01  0.170666D+00 -0.297644D-01  0.229525D-01  0.346063D-01
                31            32            33            34            35 
      1  -0.454157D+04 -0.454157D+04 -0.454157D+04 -0.454157D+04 -0.454157D+04
      2  -0.462313D+00  0.916626D-02  0.582310D-01 -0.252647D+00  0.268171D-01
      3   0.163734D-01  0.620012D-01 -0.240889D+00 -0.895283D-01  0.243070D-01
      4  -0.627525D-01 -0.443372D-01 -0.755340D-02  0.969109D-01 -0.271881D-01
      5   0.589000D-01 -0.177417D-03 -0.717291D-02  0.301600D-01 -0.389668D-02
      6  -0.253496D-02 -0.845780D-02  0.322357D-01  0.108926D-01 -0.179896D-02
      7   0.122649D-01  0.710062D-02  0.634846D-03 -0.947505D-02  0.262379D-02
      8   0.129585D-01  0.491918D-01 -0.597328D-01 -0.549297D-01  0.102401D-01
      9  -0.674278D-01  0.538923D-02  0.678383D-01  0.615166D-01  0.795402D-01
     10  -0.159080D+00 -0.129205D+00  0.121733D+00  0.123565D+00 -0.803918D-01
     11  -0.114436D+00 -0.202894D+00  0.600691D-01 -0.417664D+00  0.829686D-01
     12   0.127792D+00  0.100327D+00 -0.114857D+00  0.971388D-01  0.811146D-01
     13   0.805950D-01  0.229117D-01 -0.228185D-01 -0.102079D-01 -0.232310D-01
     14   0.209762D+00 -0.564474D-01  0.363871D-01 -0.407537D-02 -0.102113D+00
     15  -0.499940D-01 -0.326810D-01  0.279744D-02 -0.181046D+00 -0.205141D-01
     16  -0.213967D-01 -0.599624D-01  0.524778D-01  0.694620D-01 -0.863890D-01
                36            37            38            39            40 
      1  -0.454157D+04 -0.454157D+04 -0.454157D+04 -0.454156D+04 -0.454156D+04
      2   0.939155D-01 -0.532859D+00 -0.816292D+00  0.283861D+00  0.120807D+00
      3  -0.242955D+00  0.118338D+00  0.129159D+00 -0.526514D-01 -0.131763D+00
      4  -0.150740D+00 -0.301207D+00 -0.492668D+00  0.120797D+00  0.294247D-01
      5  -0.118551D-01  0.676553D-01  0.107255D+00 -0.358978D-01 -0.136065D-01
      6   0.325406D-01 -0.119076D-01 -0.181939D-01  0.817566D-02  0.172577D-01
      7   0.222758D-01  0.355484D-01  0.649636D-01 -0.143671D-01 -0.386469D-02
      8  -0.425868D-01 -0.171517D+00 -0.937457D-01 -0.884162D-02 -0.604022D-01
      9  -0.186757D+00  0.346622D+00  0.579180D+00 -0.173099D+00 -0.136633D+00
     10  -0.497289D-01  0.230786D-01  0.431586D+00  0.423689D-01 -0.749613D-01
     11  -0.904568D-01 -0.725451D+00 -0.126716D+01  0.176840D+00  0.153870D+00
     12  -0.109976D+00  0.983115D-01  0.137113D+00 -0.567414D-01 -0.175113D+00
     13  -0.832565D-01  0.371150D+00  0.478242D+00 -0.311915D-01 -0.736490D-01
     14   0.318517D-01 -0.341668D-01 -0.106837D+00 -0.632670D-01  0.141002D+00
     15   0.462506D-01 -0.105401D+00 -0.243376D+00  0.106783D+00 -0.257309D-01
     16  -0.152942D-01 -0.144920D+00 -0.203929D+00 -0.110700D-01  0.309564D-01
                41            42            43            44            45 
      1  -0.454156D+04 -0.454156D+04 -0.454156D+04 -0.454156D+04 -0.454156D+04
      2  -0.500179D-01  0.449494D+00 -0.699354D-01 -0.601631D-01 -0.198074D-01
      3  -0.534515D-01  0.323191D-01 -0.418058D-01 -0.165543D+00 -0.763144D-01
      4  -0.249574D-01  0.278369D+00 -0.102103D+00  0.810806D-02 -0.855143D-01
      5   0.992138D-02 -0.596006D-01  0.999486D-02  0.810342D-02  0.209772D-02
      6   0.844226D-02 -0.529006D-02  0.709968D-02  0.210962D-01  0.111553D-01
      7   0.617782D-02 -0.359668D-01  0.130668D-01 -0.197443D-02  0.108201D-01
      8   0.812832D-02  0.111753D+00  0.513705D-01 -0.255395D-02  0.934065D-02
      9  -0.107400D-01 -0.335872D+00 -0.474279D-01  0.155781D+00  0.716560D-01
     10  -0.616792D-02 -0.215747D+00 -0.258222D+00 -0.441799D-01  0.357964D-01
     11  -0.124989D-01  0.703798D+00 -0.206041D+00 -0.207578D-01 -0.109529D+00
     12   0.143863D-01 -0.103613D+00 -0.276206D+00 -0.129099D+00  0.197957D-01
     13  -0.720607D-01 -0.249577D+00  0.162320D+00  0.693537D-02  0.669701D-01
     14  -0.468034D-01  0.610731D-01  0.276144D+00  0.792975D-01 -0.393838D-01
     15  -0.141880D-02  0.108906D+00 -0.238485D-02 -0.221670D-01 -0.173356D-01
     16  -0.318188D-01  0.677910D-01 -0.376870D-01  0.768272D-01  0.345256D-01
                46            47            48            49            50 
      1  -0.454156D+04 -0.454156D+04 -0.454156D+04 -0.454156D+04 -0.454156D+04
      2  -0.130688D+00  0.160194D+00  0.201027D+00 -0.357722D-01  0.149634D+00
      3  -0.239409D-01 -0.779749D-01 -0.876677D-01 -0.374921D-01 -0.136779D-01
      4   0.146207D+00  0.857907D-01  0.131567D-01  0.133543D+00 -0.966513D-01
      5   0.206210D-01 -0.217154D-01 -0.250308D-01  0.466215D-02 -0.195940D-01
      6   0.371404D-02  0.100218D-01  0.115255D-01  0.405864D-02  0.792758D-03
      7  -0.192114D-01 -0.118880D-01 -0.267244D-02 -0.175538D-01  0.140082D-01
      8  -0.184760D+00 -0.744399D-01  0.344853D-01  0.307336D-01 -0.100344D-01
      9   0.112854D-01 -0.180167D+00 -0.143014D+00 -0.236332D-01 -0.180378D-01
     10  -0.151109D-01 -0.890746D-01  0.830057D-01 -0.145270D-01  0.489570D-01
     11  -0.735400D-01  0.276360D+00  0.224719D+00  0.583587D-01  0.316928D-01
     12   0.643608D-01 -0.564721D-01  0.163937D+00 -0.126159D-02  0.272558D-02
     13   0.136028D-01  0.440441D-01 -0.115931D+00 -0.119416D+00 -0.322190D-01
     14   0.260598D-01  0.695786D-01 -0.184745D+00  0.380348D-01 -0.122892D+00
     15  -0.417917D-01 -0.689913D-01  0.606046D-01 -0.209449D-01  0.270568D-01
     16  -0.496883D-01 -0.537631D-01  0.965745D-02  0.364526D-01  0.188973D-01
                51            52            53            54            55 
      1  -0.454156D+04 -0.454156D+04 -0.454156D+04 -0.454156D+04 -0.454156D+04
      2   0.241214D+00  0.907769D-02  0.108694D+00  0.239761D-01  0.103092D+00
      3  -0.245820D-01 -0.871809D-01  0.105882D+00  0.468139D-02 -0.816504D-01
      4  -0.359855D+00  0.151339D-01 -0.137538D+00  0.264700D+00 -0.291583D+00
      5  -0.329833D-01 -0.219675D-03 -0.119106D-01 -0.580171D-02 -0.135797D-01
      6   0.366254D-02  0.104883D-01 -0.145024D-01 -0.150798D-02  0.856100D-02
      7   0.521204D-01 -0.104366D-02  0.170407D-01 -0.382560D-01  0.415255D-01
      8   0.407716D-01 -0.171285D+00 -0.154078D+00 -0.502079D-02 -0.832565D-01
      9  -0.186683D+00  0.295827D-01 -0.142169D-01 -0.930704D-01 -0.506495D-01
     10  -0.379326D-03 -0.600294D-01 -0.151527D+00 -0.117037D+00  0.730922D-02
     11   0.354297D-01 -0.509281D-01  0.651101D-01  0.192895D+00 -0.258779D+00
     12  -0.331500D+00 -0.582897D-01 -0.205726D+00  0.112155D+00  0.156518D+00
     13   0.125434D+00  0.737219D-01  0.180285D+00 -0.144021D+00  0.156989D+00
     14   0.896115D-01  0.786186D-01 -0.374194D-01 -0.266298D-01  0.803586D-01
     15   0.710438D-01 -0.477372D-02 -0.821730D-02  0.734245D-02 -0.356675D-01
     16  -0.700442D-01  0.137818D-01  0.853345D-02  0.935177D-01 -0.186075D+00
                56            57            58            59            60 
      1  -0.454156D+04 -0.454156D+04 -0.454156D+04 -0.454156D+04 -0.454156D+04
      2  -0.172593D-01 -0.916199D-01 -0.102386D+00 -0.133651D+00 -0.276973D+00
      3  -0.211635D+00  0.126594D+00 -0.483917D-01 -0.111063D+00  0.441376D-02
      4   0.114542D+00 -0.123178D+00  0.174870D+00  0.211192D+00 -0.144742D+00
      5   0.360978D-02  0.124274D-01  0.125552D-01  0.181866D-01  0.374377D-01
      6   0.294640D-01 -0.167221D-01  0.380255D-02  0.153552D-01 -0.256407D-03
      7  -0.166002D-01  0.167000D-01 -0.250125D-01 -0.300775D-01  0.189166D-01
      8  -0.228934D+00  0.250371D-01 -0.578688D-02 -0.209032D+00 -0.844410D-01
      9   0.592919D-01  0.157014D+00  0.776180D-01  0.793693D-01  0.386341D+00
     10  -0.265966D-01  0.743374D-01  0.898835D-01  0.196993D-01  0.281839D+00
     11  -0.353684D-01 -0.744542D-01  0.147756D+00 -0.168160D+00 -0.723728D+00
     12   0.806234D-01 -0.876270D-01 -0.206466D-01  0.825682D-01  0.432001D-01
     13  -0.110580D+00  0.196870D+00 -0.306318D+00  0.244907D-01  0.395764D-01
     14   0.339638D-01  0.633353D-01  0.213120D-01  0.918291D-01 -0.344605D-01
     15   0.606170D-01 -0.814470D-02  0.852388D-01 -0.196163D-01 -0.148780D+00
     16   0.146987D+00 -0.493863D-01  0.115783D+00 -0.619440D-01  0.367707D-02
 Unable to Open any file for archive entry.
 1\1\GINC-X1000C0S1B0N1\SP\RPBEPBE TD-FC\Gen\C50H40Cu1N4O1P2(1+)\PNG4RJ
 V\20-Nov-2023\0\\#p PBEPBE chkbasis geom=allcheck Guess=Read int=ultra
 fine scrf=(SMD,solvent=Dichloromethane) td=(NStates=60) EmpiricalDispe
 rsion=GD3BJ\\Title\\1,1\C,0,1.3728140146,2.2559532183,-1.1159046077\C,
 0,1.1154100001,1.3683957259,-2.1879343662\C,0,1.8789502335,1.406184643
 2,-3.3625585045\C,0,2.903481367,2.3570041951,-3.4798393565\C,0,3.15533
 11222,3.2670774465,-2.4413033194\C,0,2.3949725355,3.2124299932,-1.2640
 501831\C,0,0.8445245863,-1.8028018486,-2.111463632\C,0,0.0657207577,-0
 .742823622,-2.6344597009\C,0,-0.7773125496,-0.933996694,-3.7358604318\
 C,0,-0.8421339577,-2.1948926643,-4.347659036\C,0,-0.069807952,-3.25687
 07423,-3.8519673062\C,0,0.7606330234,-3.0625905252,-2.7375725838\C,0,-
 1.1824413263,2.5568975981,0.2908708096\C,0,-1.6592003496,3.1375531342,
 -0.89874349\C,0,-2.995628537,3.5615406873,-0.9868140428\C,0,-3.8616478
 751,3.4064117341,0.1065376392\C,0,-3.3884355333,2.8266106365,1.2965182
 757\C,0,-2.0573760282,2.3991596877,1.3873583669\C,0,1.3113273944,3.040
 6873199,1.6724084427\C,0,2.2774166057,2.5071145245,2.5496317131\C,0,2.
 9325568795,3.3373868204,3.4710347976\C,0,2.6150352149,4.7038787064,3.5
 294943685\C,0,1.6421244904,5.2383689738,2.6677867363\C,0,0.9900589068,
 4.4122287627,1.7406667627\C,0,2.2176029107,-3.1984199994,0.0136933424\
 C,0,1.1823757829,-3.8900556197,0.6818971971\C,0,1.4044995587,-5.178452
 5973,1.1841666408\C,0,2.6677594421,-5.7795761322,1.0455788036\C,0,3.70
 39291751,-5.0886961202,0.3994098016\C,0,3.4829223744,-3.8018714577,-0.
 1191023758\C,0,3.4141229463,-0.8262995978,-1.196888662\C,0,4.057933895
 3,0.1680952799,-0.4360654849\C,0,5.2765609466,0.7097021517,-0.87029597
 01\C,0,5.8559877163,0.2622963295,-2.0676358644\C,0,5.2140203034,-0.725
 1114535,-2.834070822\C,0,3.9946701581,-1.2671320185,-2.4044431358\H,0,
 1.673954428,0.6898431771,-4.1707125716\H,0,3.5100092276,2.3844065219,-
 4.3971835145\H,0,3.9569638012,4.0129647411,-2.5412939552\H,0,2.6130146
 767,3.9012804001,-0.4345953356\H,0,-1.3787468842,-0.0861517936,-4.0935
 229357\H,0,-1.5027909079,-2.3473816555,-5.2139691538\H,0,-0.1199609129
 ,-4.246783255,-4.3287741175\H,0,1.3439713218,-3.9036016076,-2.33302686
 47\H,0,-3.360450069,4.0208116139,-1.9182254546\H,0,-4.9087321273,3.735
 9128366,0.03296463\H,0,-4.0630543239,2.7071711939,2.1579490413\H,0,-1.
 6882264341,1.9401142799,2.3188487966\H,0,3.6870004884,2.9159074607,4.1
 523019027\H,0,3.1233279901,5.3559432448,4.2556376273\H,0,1.388910248,6
 .3080287167,2.7194923394\H,0,0.224869013,4.8300712622,1.0684524198\H,0
 ,0.590435658,-5.7153727006,1.6943171622\H,0,2.8448916114,-6.788540682,
 1.447272274\H,0,4.6955084511,-5.5542034542,0.2942228907\H,0,4.29868012
 72,-3.2655125153,-0.6260757908\H,0,5.7693941917,1.4933498657,-0.275650
 5497\H,0,6.8099219635,0.6903251818,-2.4107133961\H,0,5.6645276458,-1.0
 715056224,-3.7764539976\H,0,3.4842520264,-2.0284926512,-3.0141654046\O
 ,0,0.065547743,0.4917683101,-2.0026456067\P,0,0.524332923,1.9038390546
 ,0.470142483\P,0,1.8261951257,-1.5046157019,-0.5780613351\H,0,2.502046
 6398,1.4289196931,2.507726259\H,0,-0.9817249331,3.2630118563,-1.756669
 0674\H,0,3.584364657,0.5309212522,0.4894057897\H,0,0.1992546141,-3.407
 2073123,0.8019836185\Cu,0,0.5571742776,-0.3163116396,0.8461454525\C,0,
 -1.0134504821,-1.393626371,3.0560273388\C,0,-1.3800213458,-1.911577421
 3,4.3114547543\C,0,-0.3869068615,-2.1263333796,5.2737100214\C,0,0.9472
 733295,-1.8296066405,4.951353762\C,0,1.2324286156,-1.3161771759,3.6811
 086321\H,0,-2.4319770763,-2.1524726284,4.5216361902\H,0,1.7602100416,-
 1.9944223874,5.672291204\H,0,2.2658256048,-1.0777169057,3.3834904972\N
 ,0,0.282111921,-1.0872118695,2.7544987959\H,0,-0.649025996,-2.53046236
 33,6.2624397977\C,0,-1.9571530817,-1.1505091784,1.9656507665\C,0,-3.34
 49884465,-1.1248999863,1.8530018006\H,0,-4.1522292767,-1.264980128,2.5
 761610658\N,0,-1.450629491,-0.8318749152,0.7267919034\N,0,-2.413686122
 9,-0.618917008,-0.126761967\N,0,-3.5749124358,-0.7907580029,0.54703209
 11\C,0,-4.8214318299,-0.5799653779,-0.1138535811\C,0,-5.9788504905,-1.
 2385010082,0.329599733\C,0,-4.8715601563,0.3030638793,-1.2067238729\C,
 0,-7.1958075042,-0.995437328,-0.3199230861\H,0,-5.9352643238,-1.953849
 6557,1.1635779841\C,0,-6.0944927969,0.5219372701,-1.8466367952\H,0,-3.
 9554337884,0.8162383569,-1.5270263921\C,0,-7.2800318569,-0.1161903943,
 -1.4189505975\H,0,-8.1021205974,-1.5125773419,0.0300710826\H,0,-6.1338
 860799,1.2193560555,-2.6978306067\C,0,-8.5837774938,0.1198298716,-2.13
 3791358\H,0,-8.6099939914,-0.4332614215,-3.0968917577\H,0,-9.449660074
 ,-0.218047954,-1.5333990298\H,0,-8.7252314036,1.1919818627,-2.37611683
 42\\Version=AS64L-G16RevC.02\State=1-A\HF=-4541.6991578\RMSD=7.290e-09
 \PG=C01 [X(C50H40Cu1N4O1P2)]\\@
 The archive entry for this job was punched.


 EVANS BOLDLY PUT 50 ATM. OF ETHYLENE IN A CELL WITH 25 ATM. OF OXYGEN.
 THE APPARATUS SUBSEQUENTLY BLEW UP, BUT LUCKILY NOT BEFORE HE
 OBTAINED THE SPECTRA SHOWN IN FIGURE 8.
 A.J.MERER AND R.S.MULLIKEN, CHEM.REV. 69, 645 (1969)
 Job cpu time:       0 days 20 hours  5 minutes 16.1 seconds.
 Elapsed time:       0 days  1 hours 44 minutes 10.5 seconds.
 File lengths (MBytes):  RWF=  21689 Int=      0 D2E=      0 Chk=   2189 Scr=      1
 Normal termination of Gaussian 16 at Mon Nov 20 17:26:29 2023.
