
                                 *****************
                                 * O   R   C   A *
                                 *****************

                                            #,                                       
                                            ###                                      
                                            ####                                     
                                            #####                                    
                                            ######                                   
                                           ########,                                 
                                     ,,################,,,,,                         
                               ,,#################################,,                 
                          ,,##########################################,,             
                       ,#########################################, ''#####,          
                    ,#############################################,,   '####,        
                  ,##################################################,,,,####,       
                ,###########''''           ''''###############################       
              ,#####''   ,,,,##########,,,,          '''####'''          '####       
            ,##' ,,,,###########################,,,                        '##       
           ' ,,###''''                  '''############,,,                           
         ,,##''                                '''############,,,,        ,,,,,,###''
      ,#''                                            '''#######################'''  
     '                                                          ''''####''''         
             ,#######,   #######,   ,#######,      ##                                
            ,#'     '#,  ##    ##  ,#'     '#,    #''#        ######   ,####,        
            ##       ##  ##   ,#'  ##            #'  '#       #        #'  '#        
            ##       ##  #######   ##           ,######,      #####,   #    #        
            '#,     ,#'  ##    ##  '#,     ,#' ,#      #,         ##   #,  ,#        
             '#######'   ##     ##  '#######'  #'      '#     #####' # '####'        



                  #######################################################
                  #                        -***-                        #
                  #          Department of theory and spectroscopy      #
                  #    Directorship and core code : Frank Neese         #
                  #        Max Planck Institute fuer Kohlenforschung    #
                  #                Kaiser Wilhelm Platz 1               #
                  #                 D-45470 Muelheim/Ruhr               #
                  #                      Germany                        #
                  #                                                     #
                  #                  All rights reserved                #
                  #                        -***-                        #
                  #######################################################


                         Program Version 5.0.4 -  RELEASE  -


 With contributions from (in alphabetic order):
   Daniel Aravena         : Magnetic Suceptibility
   Michael Atanasov       : Ab Initio Ligand Field Theory (pilot matlab implementation)
   Alexander A. Auer      : GIAO ZORA, VPT2 properties, NMR spectrum
   Ute Becker             : Parallelization
   Giovanni Bistoni       : ED, misc. LED, open-shell LED, HFLD
   Martin Brehm           : Molecular dynamics
   Dmytro Bykov           : SCF Hessian
   Vijay G. Chilkuri      : MRCI spin determinant printing, contributions to CSF-ICE
   Dipayan Datta          : RHF DLPNO-CCSD density
   Achintya Kumar Dutta   : EOM-CC, STEOM-CC
   Dmitry Ganyushin       : Spin-Orbit,Spin-Spin,Magnetic field MRCI
   Miquel Garcia          : C-PCM and meta-GGA Hessian, CC/C-PCM, Gaussian charge scheme
   Yang Guo               : DLPNO-NEVPT2, F12-NEVPT2, CIM, IAO-localization
   Andreas Hansen         : Spin unrestricted coupled pair/coupled cluster methods
   Benjamin Helmich-Paris : MC-RPA, TRAH-SCF, COSX integrals
   Lee Huntington         : MR-EOM, pCC
   Robert Izsak           : Overlap fitted RIJCOSX, COSX-SCS-MP3, EOM
   Marcus Kettner         : VPT2
   Christian Kollmar      : KDIIS, OOCD, Brueckner-CCSD(T), CCSD density, CASPT2, CASPT2-K
   Simone Kossmann        : Meta GGA functionals, TD-DFT gradient, OOMP2, MP2 Hessian
   Martin Krupicka        : Initial AUTO-CI
   Lucas Lang             : DCDCAS
   Marvin Lechner         : AUTO-CI (C++ implementation), FIC-MRCC
   Dagmar Lenk            : GEPOL surface, SMD
   Dimitrios Liakos       : Extrapolation schemes; Compound Job, initial MDCI parallelization
   Dimitrios Manganas     : Further ROCIS development; embedding schemes
   Dimitrios Pantazis     : SARC Basis sets
   Anastasios Papadopoulos: AUTO-CI, single reference methods and gradients
   Taras Petrenko         : DFT Hessian,TD-DFT gradient, ASA, ECA, R-Raman, ABS, FL, XAS/XES, NRVS
   Peter Pinski           : DLPNO-MP2, DLPNO-MP2 Gradient
   Christoph Reimann      : Effective Core Potentials
   Marius Retegan         : Local ZFS, SOC
   Christoph Riplinger    : Optimizer, TS searches, QM/MM, DLPNO-CCSD(T), (RO)-DLPNO pert. Triples
   Tobias Risthaus        : Range-separated hybrids, TD-DFT gradient, RPA, STAB
   Michael Roemelt        : Original ROCIS implementation
   Masaaki Saitow         : Open-shell DLPNO-CCSD energy and density
   Barbara Sandhoefer     : DKH picture change effects
   Avijit Sen             : IP-ROCIS
   Kantharuban Sivalingam : CASSCF convergence, NEVPT2, FIC-MRCI
   Bernardo de Souza      : ESD, SOC TD-DFT
   Georgi Stoychev        : AutoAux, RI-MP2 NMR, DLPNO-MP2 response
   Willem Van den Heuvel  : Paramagnetic NMR
   Boris Wezisla          : Elementary symmetry handling
   Frank Wennmohs         : Technical directorship


 We gratefully acknowledge several colleagues who have allowed us to
 interface, adapt or use parts of their codes:
   Stefan Grimme, W. Hujo, H. Kruse, P. Pracht,  : VdW corrections, initial TS optimization,
                  C. Bannwarth, S. Ehlert          DFT functionals, gCP, sTDA/sTD-DF
   Ed Valeev, F. Pavosevic, A. Kumar             : LibInt (2-el integral package), F12 methods
   Garnet Chan, S. Sharma, J. Yang, R. Olivares  : DMRG
   Ulf Ekstrom                                   : XCFun DFT Library
   Mihaly Kallay                                 : mrcc  (arbitrary order and MRCC methods)
   Jiri Pittner, Ondrej Demel                    : Mk-CCSD
   Frank Weinhold                                : gennbo (NPA and NBO analysis)
   Christopher J. Cramer and Donald G. Truhlar   : smd solvation model
   Lars Goerigk                                  : TD-DFT with DH, B97 family of functionals
   V. Asgeirsson, H. Jonsson                     : NEB implementation
   FAccTs GmbH                                   : IRC, NEB, NEB-TS, DLPNO-Multilevel, CI-OPT
                                                   MM, QMMM, 2- and 3-layer-ONIOM, Crystal-QMMM,
                                                   LR-CPCM, SF, NACMEs, symmetry and pop. for TD-DFT,
                                                   nearIR, NL-DFT gradient (VV10), updates on ESD,
                                                   ML-optimized integration grids
   S Lehtola, MJT Oliveira, MAL Marques          : LibXC Library
   Liviu Ungur et al                             : ANISO software


 Your calculation uses the libint2 library for the computation of 2-el integrals
 For citations please refer to: http://libint.valeyev.net

 Your ORCA version has been built with support for libXC version: 5.1.0
 For citations please refer to: https://tddft.org/programs/libxc/

 This ORCA versions uses:
   CBLAS   interface :  Fast vector & matrix operations
   LAPACKE interface :  Fast linear algebra routines
   SCALAPACK package :  Parallel linear algebra routines
   Shared memory     :  Shared parallel matrices
   BLAS/LAPACK       :  OpenBLAS 0.3.15  USE64BITINT DYNAMIC_ARCH NO_AFFINITY Zen SINGLE_THREADED
        Core in use  :  Zen
   Copyright (c) 2011-2014, The OpenBLAS Project


Your calculation utilizes the SMD solvation module
Please cite in your paper:
A.V. Marenich, C.J. Cramer, D.G. Truhlar J. Phys. Chem. B, 113, (2009), 6378 

XCFun DFT library Copyright 2009-2010 Ulf Ekstrom and contributors.
See http://admol.org/xcfun for more information.
This is free software; see the source code for copying conditions.
There is ABSOLUTELY NO WARRANTY; not even for MERCHANTABILITY or FITNESS FOR A PARTICULAR PURPOSE.
For details see the documentation.
Scientific users of this library should cite U. Ekstrom, L. Visscher, R. Bast, A. J. Thorvaldsen and K. Ruud;
J.Chem.Theor.Comp. 2010, DOI: 10.1021/ct100117s
XCFun Version 0.99 

================================================================================

----- Orbital basis set information -----
Your calculation utilizes the basis: ZORA-def2-SVP 
   Exponents from def2-SVP [F. Weigend and R. Ahlrichs, Phys. Chem. Chem. Phys. 7, 3297 (2005)],
   recontracted for ZORA by D. A. Pantazis.

The basis set includes element-specific modifications.

Your calculation utilizes the basis: SARC-ZORA-TZVP 
   Rb-Xe:  J. D. Rolfes, F. Neese and D. A. Pantazis, J. Comput. Chem. 41, 1842 (2020).
   La-Lu:  D. A. Pantazis and F. Neese, J. Chem. Theory Comput. 5, 2229 (2009).
   Hf-Hg:  D. A. Pantazis, X. Y. Chen, C. R. Landis and F. Neese, J. Chem. Theory Comput. 4, 908 (2008).
   Tl-Rn:  D. A. Pantazis and F. Neese, Theor. Chem. Acc. 131, 1292 (2012).
   Ac-Lr:  D. A. Pantazis and F. Neese, J. Chem. Theory Comput. 7, 677 (2011).

----- AuxJ basis set information -----
Your calculation utilizes the auxiliary basis: SARC/J 
   decontracted def2/J up to Kr:
   F. Weigend, Phys. Chem. Chem. Phys. 8, 1057 (2006)
   and SARC auxiliary basis sets beyond Kr:
   D. A. Pantazis and F. Neese, J. Chem. Theory Comput. 5, 2229 (2009).
   D. A. Pantazis, X. Y. Chen, C. R. Landis and F. Neese, J. Chem. Theory Comput. 4, 908 (2008).
   D. A. Pantazis and F. Neese, Theor. Chem. Acc. 131, 1292 (2012).
   D. A. Pantazis and F. Neese, J. Chem. Theory Comput. 7, 677 (2011).

================================================================================
                                        WARNINGS
                       Please study these warnings very carefully!
================================================================================

INFO   : Checking CIS options ...

INFO   : Since TDDFT/CIS Mode == RPA_AOINTS, the TAMMDANCOFF/TDA keyword is ignored. 


WARNING: (CIS/TDDFT): Spin-orbit needs TRIPLETS set to TRUE
  ===> : ajusting flags

WARNING: CIS/ROCIS methods need fully converged wavefunctions
  ===> : Setting SCFConvForced true
         You can overwrite this default with %scf ConvForced false 


INFO   : the flag for use of the SHARK integral package has been found!

================================================================================
                                       INPUT FILE
================================================================================
NAME = Ru-PRC_2_SOC-M06_def2SVP.inp
|  1> %maxcore 6000
|  2> %pal
|  3>  nprocs 8
|  4> end
|  5> ! M06 ZORA ZORA-DEF2-SVP SARC/J CPCM RI-SOMF(1X) DEFGRID3
|  6> 
|  7> %TDDFT 
|  8>     NROOTS    50
|  9>     TDA       FALSE
| 10>     DOSOC     TRUE
| 11> END
| 12> 
| 13> %CPCM
| 14>     SMD		TRUE
| 15>     SMDsolvent	"DMF"
| 16> END
| 17> 
| 18> %BASIS
| 19>     NEWGTO  RU      "SARC-ZORA-TZVP" END
| 20>     NEWGTO  IR      "SARC-ZORA-TZVP" END
| 21> END
| 22> 
| 23> * xyz 2 1
| 24> C                  -1.63651900   -2.08004100    0.31684900
| 25> C                  -2.43372700   -0.39162600   -1.04758300
| 26> C                  -3.63531200   -1.08594500   -1.31680600
| 27> C                  -3.79254600   -2.33418900   -0.72005700
| 28> C                  -2.79329200   -2.85762400    0.11512500
| 29> C                  -0.57823900   -2.55710400    1.14576500
| 30> C                   1.50977000   -2.16276800    2.05801600
| 31> C                   1.48279100   -3.39680100    2.72414700
| 32> C                   0.38663400   -4.22484500    2.58645700
| 33> C                  -0.68982800   -3.81246900    1.77646800
| 34> H                  -2.24939000    0.59070900   -1.49201300
| 35> H                  -4.69095400   -2.93483200   -0.88818100
| 36> H                   2.37020600   -1.49214200    2.15702500
| 37> H                   2.33488400   -3.68357300    3.34373400
| 38> H                   0.33968000   -5.19249100    3.09433700
| 39> C                  -0.70849400    2.69982300   -0.09558500
| 40> C                   0.21621800    2.05294500   -2.11559100
| 41> C                  -0.16536500    3.26399400   -2.71178900
| 42> C                  -0.83206300    4.21297300   -1.96412600
| 43> C                  -1.11983300    3.94574300   -0.61036100
| 44> C                  -0.99649600    2.35473400    1.25950300
| 45> C                  -0.84243000    0.77376100    2.94069000
| 46> C                  -1.49490700    1.62683200    3.84327700
| 47> C                  -1.90970700    2.87443400    3.42542400
| 48> C                  -1.66616300    3.27119200    2.09488800
| 49> H                   0.74511600    1.28778600   -2.69402800
| 50> H                   0.07492500    3.43643100   -3.76279500
| 51> H                  -1.14007700    5.16679600   -2.40217200
| 52> H                  -0.50681500   -0.22008100    3.25540200
| 53> H                  -1.66620200    1.28561100    4.86619200
| 54> H                  -2.42339600    3.55906200    4.10651300
| 55> C                   3.20756400    0.24753000   -0.25574500
| 56> C                   2.66081200    1.50207200    1.60863400
| 57> C                   3.99942300    1.88413200    1.78138700
| 58> C                   4.95869300    1.42675100    0.90188400
| 59> C                   4.57335600    0.58117900   -0.15788900
| 60> C                   2.75339200   -0.61112600   -1.30204700
| 61> C                   0.96562300   -1.68511800   -2.30287200
| 62> C                   1.80568600   -2.23476200   -3.28267000
| 63> C                   3.15649400   -1.95589900   -3.25801100
| 64> C                   3.66859200   -1.12039500   -2.24501800
| 65> H                   1.88786900    1.85371800    2.30003900
| 66> H                   6.01022700    1.70735500    1.01175200
| 67> H                  -0.10967400   -1.89400800   -2.31002100
| 68> H                   3.83572000   -2.37005000   -4.00880200
| 69> N                   2.27002000    0.70421300    0.61970100
| 70> N                   0.50763500   -1.74828600    1.28860900
| 71> N                  -0.59577800    1.12399300    1.68233400
| 72> N                  -1.46969500   -0.86620900   -0.26726700
| 73> N                  -0.04929500    1.77218400   -0.84315500
| 74> N                   1.42148400   -0.89254200   -1.33760200
| 75> Ru                  0.35217400    0.01871300    0.19609900
| 76> C                   5.48623100    0.04945200   -1.12611000
| 77> C                   5.05217700   -0.76604300   -2.12749100
| 78> C                  -1.87653100   -4.58948100    1.56130600
| 79> C                  -2.88367800   -4.13391800    0.76534400
| 80> C                  -2.06123700    4.53843600    1.55447800
| 81> C                  -1.80364100    4.86009200    0.25579300
| 82> H                   5.75156000   -1.16964400   -2.86545800
| 83> H                   6.54322000    0.31740700   -1.03837500
| 84> H                  -3.78528400   -4.73200100    0.60374500
| 85> H                  -1.95001000   -5.56257300    2.05568400
| 86> H                  -2.11265000    5.82544000   -0.15556600
| 87> H                  -2.58062400    5.23989900    2.21392000
| 88> H                   4.26022300    2.54022400    2.61425100
| 89> H                   1.37308500   -2.87737400   -4.05209900
| 90> C                  -4.65108100   -0.47289600   -2.20601600
| 91> C                  -5.83222300   -1.06390600   -2.44452100
| 92> H                  -6.12657200   -2.02076000   -2.00375000
| 93> H                  -6.56260000   -0.58925400   -3.10755900
| 94> C                  -4.31797200    0.84549700   -2.83517300
| 95> H                  -4.14525100    1.62897300   -2.07626800
| 96> H                  -3.40001200    0.79004600   -3.44631500
| 97> H                  -5.13651800    1.18478800   -3.48571800
| 98> *
| 99> 
|100>                          ****END OF INPUT****
================================================================================

                       ****************************
                       * Single Point Calculation *
                       ****************************

---------------------------------
CARTESIAN COORDINATES (ANGSTROEM)
---------------------------------
  C     -1.636519   -2.080041    0.316849
  C     -2.433727   -0.391626   -1.047583
  C     -3.635312   -1.085945   -1.316806
  C     -3.792546   -2.334189   -0.720057
  C     -2.793292   -2.857624    0.115125
  C     -0.578239   -2.557104    1.145765
  C      1.509770   -2.162768    2.058016
  C      1.482791   -3.396801    2.724147
  C      0.386634   -4.224845    2.586457
  C     -0.689828   -3.812469    1.776468
  H     -2.249390    0.590709   -1.492013
  H     -4.690954   -2.934832   -0.888181
  H      2.370206   -1.492142    2.157025
  H      2.334884   -3.683573    3.343734
  H      0.339680   -5.192491    3.094337
  C     -0.708494    2.699823   -0.095585
  C      0.216218    2.052945   -2.115591
  C     -0.165365    3.263994   -2.711789
  C     -0.832063    4.212973   -1.964126
  C     -1.119833    3.945743   -0.610361
  C     -0.996496    2.354734    1.259503
  C     -0.842430    0.773761    2.940690
  C     -1.494907    1.626832    3.843277
  C     -1.909707    2.874434    3.425424
  C     -1.666163    3.271192    2.094888
  H      0.745116    1.287786   -2.694028
  H      0.074925    3.436431   -3.762795
  H     -1.140077    5.166796   -2.402172
  H     -0.506815   -0.220081    3.255402
  H     -1.666202    1.285611    4.866192
  H     -2.423396    3.559062    4.106513
  C      3.207564    0.247530   -0.255745
  C      2.660812    1.502072    1.608634
  C      3.999423    1.884132    1.781387
  C      4.958693    1.426751    0.901884
  C      4.573356    0.581179   -0.157889
  C      2.753392   -0.611126   -1.302047
  C      0.965623   -1.685118   -2.302872
  C      1.805686   -2.234762   -3.282670
  C      3.156494   -1.955899   -3.258011
  C      3.668592   -1.120395   -2.245018
  H      1.887869    1.853718    2.300039
  H      6.010227    1.707355    1.011752
  H     -0.109674   -1.894008   -2.310021
  H      3.835720   -2.370050   -4.008802
  N      2.270020    0.704213    0.619701
  N      0.507635   -1.748286    1.288609
  N     -0.595778    1.123993    1.682334
  N     -1.469695   -0.866209   -0.267267
  N     -0.049295    1.772184   -0.843155
  N      1.421484   -0.892542   -1.337602
  Ru     0.352174    0.018713    0.196099
  C      5.486231    0.049452   -1.126110
  C      5.052177   -0.766043   -2.127491
  C     -1.876531   -4.589481    1.561306
  C     -2.883678   -4.133918    0.765344
  C     -2.061237    4.538436    1.554478
  C     -1.803641    4.860092    0.255793
  H      5.751560   -1.169644   -2.865458
  H      6.543220    0.317407   -1.038375
  H     -3.785284   -4.732001    0.603745
  H     -1.950010   -5.562573    2.055684
  H     -2.112650    5.825440   -0.155566
  H     -2.580624    5.239899    2.213920
  H      4.260223    2.540224    2.614251
  H      1.373085   -2.877374   -4.052099
  C     -4.651081   -0.472896   -2.206016
  C     -5.832223   -1.063906   -2.444521
  H     -6.126572   -2.020760   -2.003750
  H     -6.562600   -0.589254   -3.107559
  C     -4.317972    0.845497   -2.835173
  H     -4.145251    1.628973   -2.076268
  H     -3.400012    0.790046   -3.446315
  H     -5.136518    1.184788   -3.485718

----------------------------
CARTESIAN COORDINATES (A.U.)
----------------------------
  NO LB      ZA    FRAG     MASS         X           Y           Z
   0 C     6.0000    0    12.011   -3.092573   -3.930708    0.598758
   1 C     6.0000    0    12.011   -4.599078   -0.740066   -1.979645
   2 C     6.0000    0    12.011   -6.869744   -2.052139   -2.488403
   3 C     6.0000    0    12.011   -7.166873   -4.410978   -1.360711
   4 C     6.0000    0    12.011   -5.278557   -5.400127    0.217555
   5 C     6.0000    0    12.011   -1.092713   -4.832226    2.165182
   6 C     6.0000    0    12.011    2.853052   -4.087039    3.889087
   7 C     6.0000    0    12.011    2.802069   -6.419024    5.147892
   8 C     6.0000    0    12.011    0.730632   -7.983800    4.887695
   9 C     6.0000    0    12.011   -1.303586   -7.204522    3.357038
  10 H     1.0000    0     1.008   -4.250731    1.116278   -2.819496
  11 H     1.0000    0     1.008   -8.864618   -5.546029   -1.678419
  12 H     1.0000    0     1.008    4.479040   -2.819740    4.076187
  13 H     1.0000    0     1.008    4.412291   -6.960944    6.318742
  14 H     1.0000    0     1.008    0.641902   -9.812386    5.847449
  15 C     6.0000    0    12.011   -1.338860    5.101926   -0.180629
  16 C     6.0000    0    12.011    0.408593    3.879504   -3.997888
  17 C     6.0000    0    12.011   -0.312495    6.168055   -5.124539
  18 C     6.0000    0    12.011   -1.572371    7.961365   -3.711660
  19 C     6.0000    0    12.011   -2.116178    7.456374   -1.153415
  20 C     6.0000    0    12.011   -1.883105    4.449802    2.380116
  21 C     6.0000    0    12.011   -1.591962    1.462196    5.557099
  22 C     6.0000    0    12.011   -2.824965    3.074267    7.262741
  23 C     6.0000    0    12.011   -3.608823    5.431893    6.473113
  24 C     6.0000    0    12.011   -3.148592    6.181657    3.958765
  25 H     1.0000    0     1.008    1.408065    2.433563   -5.090975
  26 H     1.0000    0     1.008    0.141588    6.493913   -7.110652
  27 H     1.0000    0     1.008   -2.154433    9.763829   -4.539447
  28 H     1.0000    0     1.008   -0.957742   -0.415893    6.151818
  29 H     1.0000    0     1.008   -3.148665    2.429453    9.195770
  30 H     1.0000    0     1.008   -4.579555    6.725652    7.760185
  31 C     6.0000    0    12.011    6.061418    0.467764   -0.483288
  32 C     6.0000    0    12.011    5.028206    2.838505    3.039878
  33 C     6.0000    0    12.011    7.557814    3.560493    3.366334
  34 C     6.0000    0    12.011    9.370572    2.696169    1.704314
  35 C     6.0000    0    12.011    8.642390    1.098269   -0.298367
  36 C     6.0000    0    12.011    5.203157   -1.154861   -2.460512
  37 C     6.0000    0    12.011    1.824763   -3.184412   -4.351797
  38 C     6.0000    0    12.011    3.412252   -4.223088   -6.203347
  39 C     6.0000    0    12.011    5.964909   -3.696113   -6.156749
  40 C     6.0000    0    12.011    6.932634   -2.117240   -4.242469
  41 H     1.0000    0     1.008    3.567555    3.503019    4.346444
  42 H     1.0000    0     1.008   11.357683    3.226433    1.911934
  43 H     1.0000    0     1.008   -0.207254   -3.579156   -4.365307
  44 H     1.0000    0     1.008    7.248460   -4.478745   -7.575538
  45 N     7.0000    0    14.007    4.289716    1.330770    1.171065
  46 N     7.0000    0    14.007    0.959291   -3.303782    2.435118
  47 N     7.0000    0    14.007   -1.125857    2.124039    3.179151
  48 N     7.0000    0    14.007   -2.777321   -1.636898   -0.505061
  49 N     7.0000    0    14.007   -0.093154    3.348942   -1.593332
  50 N     7.0000    0    14.007    2.686215   -1.686660   -2.527701
  51 Ru   44.0000    0   101.070    0.665512    0.035362    0.370573
  52 C     6.0000    0    12.011   10.367474    0.093451   -2.128039
  53 C     6.0000    0    12.011    9.547231   -1.447611   -4.020375
  54 C     6.0000    0    12.011   -3.546130   -8.672862    2.950441
  55 C     6.0000    0    12.011   -5.449362   -7.811973    1.446291
  56 C     6.0000    0    12.011   -3.895173    8.576401    2.937538
  57 C     6.0000    0    12.011   -3.408388    9.184243    0.483379
  58 H     1.0000    0     1.008   10.868873   -2.210307   -5.414931
  59 H     1.0000    0     1.008   12.364894    0.599812   -1.962244
  60 H     1.0000    0     1.008   -7.153150   -8.942186    1.140913
  61 H     1.0000    0     1.008   -3.684985  -10.511740    3.884680
  62 H     1.0000    0     1.008   -3.992330   11.008486   -0.293977
  63 H     1.0000    0     1.008   -4.876673    9.901974    4.183702
  64 H     1.0000    0     1.008    8.050655    4.800328    4.940218
  65 H     1.0000    0     1.008    2.594755   -5.437449   -7.657357
  66 C     6.0000    0    12.011   -8.789269   -0.893644   -4.168766
  67 C     6.0000    0    12.011  -11.021304   -2.010491   -4.619475
  68 H     1.0000    0     1.008  -11.577543   -3.818683   -3.786539
  69 H     1.0000    0     1.008  -12.401517   -1.113529   -5.872435
  70 C     6.0000    0    12.011   -8.159785    1.597758   -5.357701
  71 H     1.0000    0     1.008   -7.833389    3.078313   -3.923578
  72 H     1.0000    0     1.008   -6.425092    1.492971   -6.512592
  73 H     1.0000    0     1.008   -9.706612    2.238925   -6.587052

--------------------------------
INTERNAL COORDINATES (ANGSTROEM)
--------------------------------
 C      0   0   0     0.000000000000     0.00000000     0.00000000
 C      1   0   0     2.312565780710     0.00000000     0.00000000
 C      2   1   0     1.413635883003    92.68164925     0.00000000
 C      3   2   1     1.392460047288   117.04253483   359.75725947
 C      4   3   2     1.403574625328   120.59217988     0.38338844
 C      1   2   3     1.426410669977   147.43799499   179.47759481
 C      6   1   2     2.312462832561   147.36477896     0.74379028
 C      7   6   1     1.402603229959    91.14339972   179.59572500
 C      8   7   6     1.380643172831   119.70797904     0.05125051
 C      9   8   7     1.408867127497   119.23633432   359.95186491
 H      2   1   3     1.093837376713   146.85688330   180.18739663
 H      4   3   2     1.093697685510   121.27754998   180.55126245
 H      7   6   1     1.095395875496   148.13738789   359.86088992
 H      8   7   6     1.091873944740   119.04938298   180.01640287
 H      9   8   7     1.093839820921   121.22070459   179.97753899
 C     11   2   1     2.961880062899   122.38547335   326.74483667
 C     16  11   2     2.313864228918    66.24937982   120.02000649
 C     17  16  11     1.402746349663    91.20166037   107.90348809
 C     18  17  16     1.379872214089   119.66219464     0.28429627
 C     16  11   2     1.409436323321   107.78499692   204.87851534
 C     16  11   2     1.427688711754    99.81257460   331.03022997
 C     21  16  11     2.312920597006   147.31872535    61.62776152
 C     22  21  16     1.402896881150    91.20454003   179.29433320
 C     23  22  21     1.379554609290   119.66233305     0.30776235
 C     21  16  11     1.409332201746   120.08494210   241.26677708
 H     17  16  11     1.095349602937   148.13332318   288.47704100
 H     18  17  16     1.091827557403   119.05275805   180.16803081
 H     19  18  17     1.093862531418   121.24858331   179.88954922
 H     22  21  16     1.095172585547   148.16634682   359.75713285
 H     23  22  21     1.091846530008   119.05749061   180.16469464
 H     24  23  22     1.093834591255   121.24090328   179.81204473
 C     13   7   6     3.090159568800   119.13984221   325.70422756
 C     32  13   7     2.312730514978    67.16352851   120.47473189
 C     33  32  13     1.402744756515    91.22752856   110.59264850
 C     34  33  32     1.379464330481   119.65484633     0.00000000
 C     32  13   7     1.409356320879   109.97827941   204.65082291
 C     32  13   7     1.427694017331    98.47762270   331.07406615
 C     37  32  13     2.313272032004   147.36744739    61.17655499
 C     38  37  32     1.402789539278    91.21981747   179.40878200
 C     39  38  37     1.379512555910   119.65000723     0.02835115
 C     37  32  13     1.409304885822   120.07345277   240.52994044
 H     33  32  13     1.095050987210   148.21723622   290.95014995
 H     35  34  33     1.093861661910   121.29147016   180.03382874
 H     38  37  32     1.095422191901   148.21062370   359.77475653
 H     40  39  38     1.093872083727   121.27952110   180.00811507
 N     33  32  13     1.329393038057    31.15730828   290.73525830
 N      7   6   1     1.329683051783    31.17108439   359.69242046
 N     22  21  16     1.329270283149    31.14873883   359.44638299
 N      2   1   3     1.327960760252    30.92176287   180.32643926
 N     17  16  11     1.329818508815    31.11863957   288.21816711
 N     38  37  32     1.329560882396    31.14703605   359.57190717
 Ru    50  17  16     2.077471247050   128.19058634   177.43301804
 C     36  32  13     1.433013005173   118.85436164   113.36058763
 C     53  36  32     1.362423897729   121.04781673   359.96161199
 C     10   9   8     1.434679875302   124.03477154   179.98700553
 C     55  10   9     1.362144717723   121.20402020   179.99027588
 C     25  21  16     1.433190074314   118.84622654     0.70702552
 C     57  25  21     1.362498077348   121.06660305     0.25109441
 H     54  53  36     1.093903853627   120.86367198   179.95221907
 H     53  36  32     1.093948380122   118.06250684   179.95365959
 H     56  55  10     1.093942818856   120.85429498   179.88470325
 H     55  10   9     1.093945524598   118.00467009   359.93756071
 H     58  57  25     1.093891927965   120.88840622   179.57254397
 H     57  25  21     1.093927304487   118.07087509   179.97149721
 H     34  33  32     1.091849712625   119.04826533   180.04675156
 H     39  38  37     1.091840095337   119.04858746   180.02964811
 C      3   2   1     1.482669943670   119.56846715   179.98197725
 C     67   3   2     1.342115449315   121.83163200   183.04516745
 H     68  67   3     1.093841846684   123.39589941     0.30960304
 H     68  67   3     1.094698347800   120.25641966   180.14300545
 C     67   3   2     1.498319137894   117.60327010     2.83468576
 H     71  67   3     1.104356819801   111.74404291   298.88373075
 H     71  67   3     1.104182919251   111.90376785    58.36711306
 H     71  67   3     1.099247348790   110.76574301   178.78722975

---------------------------
INTERNAL COORDINATES (A.U.)
---------------------------
 C      0   0   0     0.000000000000     0.00000000     0.00000000
 C      1   0   0     4.370115992221     0.00000000     0.00000000
 C      2   1   0     2.671384671961    92.68164925     0.00000000
 C      3   2   1     2.631368141801   117.04253483   359.75725947
 C      4   3   2     2.652371650391   120.59217988     0.38338844
 C      1   2   3     2.695525520760   147.43799499   179.47759481
 C      6   1   2     4.369921448413   147.36477896     0.74379028
 C      7   6   1     2.650535979176    91.14339972   179.59572500
 C      8   7   6     2.609037485319   119.70797904     0.05125051
 C      9   8   7     2.662373030053   119.23633432   359.95186491
 H      2   1   3     2.067053077034   146.85688330   180.18739663
 H      4   3   2     2.066789098917   121.27754998   180.55126245
 H      7   6   1     2.069998212914   148.13738789   359.86088992
 H      8   7   6     2.063342728323   119.04938298   180.01640287
 H      9   8   7     2.067057695918   121.22070459   179.97753899
 C     11   2   1     5.597142160400   122.38547335   326.74483667
 C     16  11   2     4.372569703731    66.24937982   120.02000649
 C     17  16  11     2.650806436222    91.20166037   107.90348809
 C     18  17  16     2.607580584435   119.66219464     0.28429627
 C     16  11   2     2.663448654278   107.78499692   204.87851534
 C     16  11   2     2.697940669705    99.81257460   331.03022997
 C     21  16  11     4.370786497847   147.31872535    61.62776152
 C     22  21  16     2.651090899505    91.20454003   179.29433320
 C     23  22  21     2.606980398347   119.66233305     0.30776235
 C     21  16  11     2.663251893016   120.08494210   241.26677708
 H     17  16  11     2.069910770450   148.13332318   288.47704100
 H     18  17  16     2.063255068960   119.05275805   180.16803081
 H     19  18  17     2.067100612539   121.24858331   179.88954922
 H     22  21  16     2.069576256062   148.16634682   359.75713285
 H     23  22  21     2.063290921988   119.05749061   180.16469464
 H     24  23  22     2.067047813282   121.24090328   179.81204473
 C     13   7   6     5.839555295149   119.13984221   325.70422756
 C     32  13   7     4.370427294871    67.16352851   120.47473189
 C     33  32  13     2.650803425607    91.22752856   110.59264850
 C     34  33  32     2.606809796123   119.65484633     0.00000000
 C     32  13   7     2.663297471572   109.97827941   204.65082291
 C     32  13   7     2.697950695794    98.47762270   331.07406615
 C     37  32  13     4.371450613746   147.36744739    61.17655499
 C     38  37  32     2.650888052766    91.21981747   179.40878200
 C     39  38  37     2.606900928976   119.65000723     0.02835115
 C     37  32  13     2.663200273401   120.07345277   240.52994044
 H     33  32  13     2.069346468507   148.21723622   290.95014995
 H     35  34  33     2.067098969405   121.29147016   180.03382874
 H     38  37  32     2.070047943713   148.21062370   359.77475653
 H     40  39  38     2.067118663786   121.27952110   180.00811507
 N     33  32  13     2.512188766269    31.15730828   290.73525830
 N      7   6   1     2.512736812786    31.17108439   359.69242046
 N     22  21  16     2.511956793112    31.14873883   359.44638299
 N      2   1   3     2.509482153470    30.92176287   180.32643926
 N     17  16  11     2.512992789479    31.11863957   288.21816711
 N     38  37  32     2.512505946103    31.14703605   359.57190717
 Ru    50  17  16     3.925851708020   128.19058634   177.43301804
 C     36  32  13     2.708002126124   118.85436164   113.36058763
 C     53  36  32     2.574608045017   121.04781673   359.96161199
 C     10   9   8     2.711152054169   124.03477154   179.98700553
 C     55  10   9     2.574080471265   121.20402020   179.99027588
 C     25  21  16     2.708336738308   118.84622654     0.70702552
 C     57  25  21     2.574748224182   121.06660305     0.25109441
 H     54  53  36     2.067178700195   120.86367198   179.95221907
 H     53  36  32     2.067262843077   118.06250684   179.95365959
 H     56  55  10     2.067252333807   120.85429498   179.88470325
 H     55  10   9     2.067257446920   118.00467009   359.93756071
 H     58  57  25     2.067156163960   120.88840622   179.57254397
 H     57  25  21     2.067223015899   118.07087509   179.97149721
 H     34  33  32     2.063296936262   119.04826533   180.04675156
 H     39  38  37     2.063278762222   119.04858746   180.02964811
 C      3   2   1     2.801840140532   119.56846715   179.98197725
 C     67   3   2     2.536230639309   121.83163200   183.04516745
 H     68  67   3     2.067061524056   123.39589941     0.30960304
 H     68  67   3     2.068680076599   120.25641966   180.14300545
 C     67   3   2     2.831412831832   117.60327010     2.83468576
 H     71  67   3     2.086931943553   111.74404291   298.88373075
 H     71  67   3     2.086603319138   111.90376785    58.36711306
 H     71  67   3     2.077276442652   110.76574301   178.78722975

---------------------
BASIS SET INFORMATION
---------------------
There are 4 groups of distinct atoms

 Group   1 Type C   : 7s4p1d contracted to 3s2p1d pattern {511/31/1}
 Group   2 Type H   : 4s1p contracted to 2s1p pattern {31/1}
 Group   3 Type N   : 7s4p1d contracted to 3s2p1d pattern {511/31/1}
 Group   4 Type Ru  : 22s15p9d1f contracted to 15s10p5d1f pattern {811111111111111/6111111111/51111/1}

Atom   0C    basis set group =>   1
Atom   1C    basis set group =>   1
Atom   2C    basis set group =>   1
Atom   3C    basis set group =>   1
Atom   4C    basis set group =>   1
Atom   5C    basis set group =>   1
Atom   6C    basis set group =>   1
Atom   7C    basis set group =>   1
Atom   8C    basis set group =>   1
Atom   9C    basis set group =>   1
Atom  10H    basis set group =>   2
Atom  11H    basis set group =>   2
Atom  12H    basis set group =>   2
Atom  13H    basis set group =>   2
Atom  14H    basis set group =>   2
Atom  15C    basis set group =>   1
Atom  16C    basis set group =>   1
Atom  17C    basis set group =>   1
Atom  18C    basis set group =>   1
Atom  19C    basis set group =>   1
Atom  20C    basis set group =>   1
Atom  21C    basis set group =>   1
Atom  22C    basis set group =>   1
Atom  23C    basis set group =>   1
Atom  24C    basis set group =>   1
Atom  25H    basis set group =>   2
Atom  26H    basis set group =>   2
Atom  27H    basis set group =>   2
Atom  28H    basis set group =>   2
Atom  29H    basis set group =>   2
Atom  30H    basis set group =>   2
Atom  31C    basis set group =>   1
Atom  32C    basis set group =>   1
Atom  33C    basis set group =>   1
Atom  34C    basis set group =>   1
Atom  35C    basis set group =>   1
Atom  36C    basis set group =>   1
Atom  37C    basis set group =>   1
Atom  38C    basis set group =>   1
Atom  39C    basis set group =>   1
Atom  40C    basis set group =>   1
Atom  41H    basis set group =>   2
Atom  42H    basis set group =>   2
Atom  43H    basis set group =>   2
Atom  44H    basis set group =>   2
Atom  45N    basis set group =>   3
Atom  46N    basis set group =>   3
Atom  47N    basis set group =>   3
Atom  48N    basis set group =>   3
Atom  49N    basis set group =>   3
Atom  50N    basis set group =>   3
Atom  51Ru   basis set group =>   4
Atom  52C    basis set group =>   1
Atom  53C    basis set group =>   1
Atom  54C    basis set group =>   1
Atom  55C    basis set group =>   1
Atom  56C    basis set group =>   1
Atom  57C    basis set group =>   1
Atom  58H    basis set group =>   2
Atom  59H    basis set group =>   2
Atom  60H    basis set group =>   2
Atom  61H    basis set group =>   2
Atom  62H    basis set group =>   2
Atom  63H    basis set group =>   2
Atom  64H    basis set group =>   2
Atom  65H    basis set group =>   2
Atom  66C    basis set group =>   1
Atom  67C    basis set group =>   1
Atom  68H    basis set group =>   2
Atom  69H    basis set group =>   2
Atom  70C    basis set group =>   1
Atom  71H    basis set group =>   2
Atom  72H    basis set group =>   2
Atom  73H    basis set group =>   2
---------------------------------
AUXILIARY/J BASIS SET INFORMATION
---------------------------------
There are 4 groups of distinct atoms

 Group   1 Type C   : 12s5p4d2f1g contracted to 12s5p4d2f1g pattern {111111111111/11111/1111/11/1}
 Group   2 Type H   : 5s2p1d contracted to 5s2p1d pattern {11111/11/1}
 Group   3 Type N   : 12s5p4d2f1g contracted to 12s5p4d2f1g pattern {111111111111/11111/1111/11/1}
 Group   4 Type Ru  : 23s7p6d3f4g contracted to 23s7p6d3f4g pattern {11111111111111111111111/1111111/111111/111/1111}

Atom   0C    basis set group =>   1
Atom   1C    basis set group =>   1
Atom   2C    basis set group =>   1
Atom   3C    basis set group =>   1
Atom   4C    basis set group =>   1
Atom   5C    basis set group =>   1
Atom   6C    basis set group =>   1
Atom   7C    basis set group =>   1
Atom   8C    basis set group =>   1
Atom   9C    basis set group =>   1
Atom  10H    basis set group =>   2
Atom  11H    basis set group =>   2
Atom  12H    basis set group =>   2
Atom  13H    basis set group =>   2
Atom  14H    basis set group =>   2
Atom  15C    basis set group =>   1
Atom  16C    basis set group =>   1
Atom  17C    basis set group =>   1
Atom  18C    basis set group =>   1
Atom  19C    basis set group =>   1
Atom  20C    basis set group =>   1
Atom  21C    basis set group =>   1
Atom  22C    basis set group =>   1
Atom  23C    basis set group =>   1
Atom  24C    basis set group =>   1
Atom  25H    basis set group =>   2
Atom  26H    basis set group =>   2
Atom  27H    basis set group =>   2
Atom  28H    basis set group =>   2
Atom  29H    basis set group =>   2
Atom  30H    basis set group =>   2
Atom  31C    basis set group =>   1
Atom  32C    basis set group =>   1
Atom  33C    basis set group =>   1
Atom  34C    basis set group =>   1
Atom  35C    basis set group =>   1
Atom  36C    basis set group =>   1
Atom  37C    basis set group =>   1
Atom  38C    basis set group =>   1
Atom  39C    basis set group =>   1
Atom  40C    basis set group =>   1
Atom  41H    basis set group =>   2
Atom  42H    basis set group =>   2
Atom  43H    basis set group =>   2
Atom  44H    basis set group =>   2
Atom  45N    basis set group =>   3
Atom  46N    basis set group =>   3
Atom  47N    basis set group =>   3
Atom  48N    basis set group =>   3
Atom  49N    basis set group =>   3
Atom  50N    basis set group =>   3
Atom  51Ru   basis set group =>   4
Atom  52C    basis set group =>   1
Atom  53C    basis set group =>   1
Atom  54C    basis set group =>   1
Atom  55C    basis set group =>   1
Atom  56C    basis set group =>   1
Atom  57C    basis set group =>   1
Atom  58H    basis set group =>   2
Atom  59H    basis set group =>   2
Atom  60H    basis set group =>   2
Atom  61H    basis set group =>   2
Atom  62H    basis set group =>   2
Atom  63H    basis set group =>   2
Atom  64H    basis set group =>   2
Atom  65H    basis set group =>   2
Atom  66C    basis set group =>   1
Atom  67C    basis set group =>   1
Atom  68H    basis set group =>   2
Atom  69H    basis set group =>   2
Atom  70C    basis set group =>   1
Atom  71H    basis set group =>   2
Atom  72H    basis set group =>   2
Atom  73H    basis set group =>   2


           ************************************************************
           *        Program running with 8 parallel MPI-processes     *
           *              working on a common directory               *
           ************************************************************
------------------------------------------------------------------------------
                           ORCA GTO INTEGRAL CALCULATION
                           -- RI-GTO INTEGRALS CHOSEN --
------------------------------------------------------------------------------
------------------------------------------------------------------------------
                   ___                                                        
                  /   \      - P O W E R E D   B Y -                         
                 /     \                                                     
                 |  |  |   _    _      __       _____    __    __             
                 |  |  |  | |  | |    /  \     |  _  \  |  |  /  |          
                  \  \/   | |  | |   /    \    | | | |  |  | /  /          
                 / \  \   | |__| |  /  /\  \   | |_| |  |  |/  /          
                |  |  |   |  __  | /  /__\  \  |    /   |      \           
                |  |  |   | |  | | |   __   |  |    \   |  |\   \          
                \     /   | |  | | |  |  |  |  | |\  \  |  | \   \       
                 \___/    |_|  |_| |__|  |__|  |_| \__\ |__|  \__/        
                                                                              
                      - O R C A' S   B I G   F R I E N D -                    
                                      &                                       
                       - I N T E G R A L  F E E D E R -                       
                                                                              
 v1 FN, 2020, v2 2021                                                         
------------------------------------------------------------------------------


Reading SHARK input file Ru-PRC_2_SOC-M06_def2SVP.SHARKINP.tmp ... ok
----------------------
SHARK INTEGRAL PACKAGE
----------------------

Number of atoms                             ...     74
Number of basis functions                   ...    847
Number of shells                            ...    385
Maximum angular momentum                    ...      3
Integral batch strategy                     ... SHARK/LIBINT Hybrid
RI-J (if used) integral strategy            ... SPLIT-RIJ (Revised 2003 algorithm where possible)
Printlevel                                  ...      1
Contraction scheme used                     ... SEGMENTED contraction
Coulomb Range Separation                    ... NOT USED
Exchange Range Separation                   ... NOT USED
Finite Nucleus Model                        ... NOT USED
Auxiliary Coulomb fitting basis             ... AVAILABLE
   # of basis functions in Aux-J            ...   3729
   # of shells in Aux-J                     ...   1347
   Maximum angular momentum in Aux-J        ...      4
Auxiliary J/K fitting basis                 ... NOT available
Auxiliary Correlation fitting basis         ... NOT available
Auxiliary 'external' fitting basis          ... NOT available
Integral threshold                          ...     1.000000e-10
Primitive cut-off                           ...     1.000000e-11
Primitive pair pre-selection threshold      ...     1.000000e-11

Calculating pre-screening integrals         ... done (  0.1 sec) Dimension = 385
Organizing shell pair data                  ... done (  0.2 sec)
Shell pair information
Total number of shell pairs                 ...     74305
Shell pairs after pre-screening             ...     45558
Total number of primitive shell pairs       ...    265350
Primitive shell pairs kept                  ...     94485
          la=0 lb=0:  13232 shell pairs
          la=1 lb=0:  16883 shell pairs
          la=1 lb=1:   5470 shell pairs
          la=2 lb=0:   5560 shell pairs
          la=2 lb=1:   3620 shell pairs
          la=2 lb=2:    514 shell pairs
          la=3 lb=0:    148 shell pairs
          la=3 lb=1:     95 shell pairs
          la=3 lb=2:     35 shell pairs
          la=3 lb=3:      1 shell pairs

Calculating one electron integrals          ... done (  0.1 sec)
Calculating RI/J V-Matrix + Cholesky decomp.... done (  0.6 sec)
Calculating Nuclear repulsion               ... done (  0.0 sec) ENN=   7276.988943061485 Eh

SHARK setup successfully completed in   1.4 seconds

Maximum memory used throughout the entire GTOINT-calculation: 95.3 MB


           ************************************************************
           *        Program running with 8 parallel MPI-processes     *
           *              working on a common directory               *
           ************************************************************
------------------------------------------------------------------------------
                          ORCA RELATIVISTIC HAMILTONIAN
------------------------------------------------------------------------------

Relativistic Method            ... ZORA(MP)
Treatment of potential         ... Van Wuellen
Nucleus model                  ... Point Nucleus
Speed of light used            ... 137.03598950000000


            *************************************************
            *         ZERO ORDER REGULAR APPROXIMATION      *
            *                     ZORA(MP)                  *
            *            Programmed by FN according to      *
            *                   C. van Wuellen              *
            *       J. Chem. Phys. (1998) vol 109, 392-399  *
            *************************************************

Terms included in model potential: +V(e,N)+V(C)+V(Xa)+V(VWN-V)
Basis function cutoff value   ... 1.000000e-10
Loading the fitted atomic densities (ZORA)   ... done
Calculating the cutoffs                      ... done
Number of fit functions                      ... 664
Setting up the integration grid ... done

Maximum memory used throughout the entire REL-calculation: 235.8 MB


           ************************************************************
           *        Program running with 8 parallel MPI-processes     *
           *              working on a common directory               *
           ************************************************************
-------------------------------------------------------------------------------
                                 ORCA SCF
-------------------------------------------------------------------------------

------------
SCF SETTINGS
------------
Hamiltonian:
 Density Functional     Method          .... DFT(GTOs)
 Exchange Functional    Exchange        .... M06
 Correlation Functional Correlation     .... M06
 Gradients option       PostSCFGGA      .... off
 Hybrid DFT is turned on
   Fraction HF Exchange ScalHFX         ....  0.270000
   Scaling of DF-GGA-X  ScalDFX         ....  0.730000
   Scaling of DF-GGA-C  ScalDFC         ....  1.000000
   Scaling of DF-LDA-C  ScalLDAC        ....  1.000000
   Perturbative correction              ....  0.000000
   Density functional embedding theory  .... OFF
 RI-approximation to the Coulomb term is turned on
   Number of AuxJ basis functions       .... 3729
   RIJ-COSX (HFX calculated with COS-X)).... on

Relativistic Settings:
 Scalar relativistic method             .... ZORA
 Speed of light used       Velit        ....       137.035989
Orbital energies will be scaled


General Settings:
 Integral files         IntName         .... Ru-PRC_2_SOC-M06_def2SVP
 Hartree-Fock type      HFTyp           .... RHF
 Total Charge           Charge          ....    2
 Multiplicity           Mult            ....    1
 Number of Electrons    NEL             ....  346
 Basis Dimension        Dim             ....  847
 Nuclear Repulsion      ENuc            ....   7276.9889430615 Eh

Convergence Acceleration:
 DIIS                   CNVDIIS         .... on
   Start iteration      DIISMaxIt       ....    12
   Startup error        DIISStart       ....  0.200000
   # of expansion vecs  DIISMaxEq       ....     5
   Bias factor          DIISBfac        ....   1.050
   Max. coefficient     DIISMaxC        ....  10.000
 Trust-Rad. Augm. Hess. CNVTRAH         .... auto
   Auto Start mean grad. ratio tolernc. ....  1.125000
   Auto Start start iteration           ....    20
   Auto Start num. interpolation iter.  ....    10
   Max. Number of Micro iterations      ....    16
   Max. Number of Macro iterations      .... Maxiter - #DIIS iter
   Number of Davidson start vectors     ....     2
   Converg. threshold I  (grad. norm)   ....   5.000e-05
   Converg. threshold II (energy diff.) ....   1.000e-06
   Grad. Scal. Fac. for Micro threshold ....   0.100
   Minimum threshold for Micro iter.    ....   0.010
   NR start threshold (gradient norm)   ....   0.001
   Initial trust radius                 ....   0.400
   Minimum AH scaling param. (alpha)    ....   1.000
   Maximum AH scaling param. (alpha)    .... 1000.000
   Orbital update algorithm             .... Taylor
   White noise on init. David. guess    .... on
   Maximum white noise                  ....   0.010
   Quad. conv. algorithm                .... NR
 SOSCF                  CNVSOSCF        .... off
 Level Shifting         CNVShift        .... on
   Level shift para.    LevelShift      ....    0.2500
   Turn off err/grad.   ShiftErr        ....    0.0010
 Zerner damping         CNVZerner       .... off
 Static damping         CNVDamp         .... on
   Fraction old density DampFac         ....    0.7000
   Max. Damping (<1)    DampMax         ....    0.9800
   Min. Damping (>=0)   DampMin         ....    0.0000
   Turn off err/grad.   DampErr         ....    0.1000
 Fernandez-Rico         CNVRico         .... off

SCF Procedure:
 Maximum # iterations   MaxIter         ....   125
 SCF integral mode      SCFMode         .... Direct
   Integral package                     .... SHARK and LIBINT hybrid scheme
 Reset frequency        DirectResetFreq ....    20
 Integral Threshold     Thresh          ....  1.000e-10 Eh
 Primitive CutOff       TCut            ....  1.000e-11 Eh

Convergence Tolerance:
 Convergence Check Mode ConvCheckMode   .... Total+1el-Energy
 Convergence forced     ConvForced      .... 1
 Energy Change          TolE            ....  1.000e-06 Eh
 1-El. energy change                    ....  1.000e-03 Eh
 DIIS Error             TolErr          ....  1.000e-06


Diagonalization of the overlap matrix:
Smallest eigenvalue                        ... 1.489e-04
Time for diagonalization                   ...    0.124 sec
Threshold for overlap eigenvalues          ... 1.000e-08
Number of eigenvalues below threshold      ... 0
Time for construction of square roots      ...    0.068 sec
Total time needed                          ...    0.195 sec

Time for model grid setup =    0.857 sec

------------------------------
INITIAL GUESS: MODEL POTENTIAL
------------------------------
Loading ZORA relativistic densities                ... done
Calculating cut-offs                               ... done
Initializing the effective Hamiltonian             ... done
Setting up the integral package (SHARK)            ... done
Starting the Coulomb interaction                   ... done (   0.7 sec)
Reading the grid                                   ... done
Mapping shells                                     ... done
Starting the XC term evaluation                    ... done (   0.3 sec)
  promolecular density results
     # of electrons  =    348.007000966
     EX              =   -382.477544553
     EC              =    -12.599184400
     EX+EC           =   -395.076728953
Transforming the Hamiltonian                       ... done (   0.1 sec)
Diagonalizing the Hamiltonian                      ... done (   0.1 sec)
Back transforming the eigenvectors                 ... done (   0.0 sec)
Now organizing SCF variables                       ... done
                      ------------------
                      INITIAL GUESS DONE (   2.1 sec)
                      ------------------
-------------------
DFT GRID GENERATION
-------------------

General Integration Accuracy     IntAcc      ... 4.959
Radial Grid Type                 RadialGrid  ... OptM3 with GC (2021)
Angular Grid (max. ang.)         AngularGrid ... 6 (Lebedev-590)
Angular grid pruning method      GridPruning ... 4 (adaptive)
Weight generation scheme         WeightScheme... Becke
Basis function cutoff            BFCut       ... 1.0000e-10
Integration weight cutoff        WCut        ... 1.0000e-14
Angular grids for H and He will be reduced by one unit
Partially contracted basis set               ... off
Rotationally invariant grid construction     ... off

Total number of grid points                  ...   915956
Total number of batches                      ...    14344
Average number of points per batch           ...       63
Average number of grid points per atom       ...    12378
Time for grid setup =   12.420 sec

--------------------
COSX GRID GENERATION
--------------------

GRIDX 1
-------
General Integration Accuracy     IntAcc      ... 4.020
Radial Grid Type                 RadialGrid  ... OptM3 with GC (2021)
Angular Grid (max. ang.)         AngularGrid ... 2 (Lebedev-110)
Angular grid pruning method      GridPruning ... 4 (adaptive)
Weight generation scheme         WeightScheme... Becke
Basis function cutoff            BFCut       ... 1.0000e-10
Integration weight cutoff        WCut        ... 1.0000e-14
Angular grids for H and He will be reduced by one unit
Partially contracted basis set               ... on
Rotationally invariant grid construction     ... off

Total number of grid points                  ...   101847
Total number of batches                      ...     1630
Average number of points per batch           ...       62
Average number of grid points per atom       ...     1376
UseSFitting                                  ... on

GRIDX 2
-------
General Integration Accuracy     IntAcc      ... 4.338
Radial Grid Type                 RadialGrid  ... OptM3 with GC (2021)
Angular Grid (max. ang.)         AngularGrid ... 3 (Lebedev-194)
Angular grid pruning method      GridPruning ... 4 (adaptive)
Weight generation scheme         WeightScheme... Becke
Basis function cutoff            BFCut       ... 1.0000e-10
Integration weight cutoff        WCut        ... 1.0000e-14
Angular grids for H and He will be reduced by one unit
Partially contracted basis set               ... on
Rotationally invariant grid construction     ... off

Total number of grid points                  ...   219989
Total number of batches                      ...     3473
Average number of points per batch           ...       63
Average number of grid points per atom       ...     2973
UseSFitting                                  ... on

GRIDX 3
-------
General Integration Accuracy     IntAcc      ... 4.871
Radial Grid Type                 RadialGrid  ... OptM3 with GC (2021)
Angular Grid (max. ang.)         AngularGrid ... 4 (Lebedev-302)
Angular grid pruning method      GridPruning ... 4 (adaptive)
Weight generation scheme         WeightScheme... Becke
Basis function cutoff            BFCut       ... 1.0000e-10
Integration weight cutoff        WCut        ... 1.0000e-14
Angular grids for H and He will be reduced by one unit
Partially contracted basis set               ... on
Rotationally invariant grid construction     ... off

Total number of grid points                  ...   406359
Total number of batches                      ...     6393
Average number of points per batch           ...       63
Average number of grid points per atom       ...     5491
UseSFitting                                  ... on

Time for X-Grid setup             =    6.685 sec


--------------------
CPCM SOLVATION MODEL
--------------------
CPCM parameters:
  Epsilon                                         ...      37.2190
  Refrac                                          ...       1.4305
  Rsolv                                           ...       1.3000
  Surface type                                    ... GAUSSIAN VDW
  Epsilon function type                           ...         CPCM
Solvent:                                     ... DMF
SMD-CDS solvent descriptors:
  Soln                                       ...    1.4305
  Soln25                                     ...    1.4280
  Sola                                       ...    0.0000
  Solb                                       ...    0.7400
  Solg                                       ...   49.5600
  Solc                                       ...    0.0000
  Solh                                       ...    0.0000
Radii:
 Radius for C  used is    3.4960 Bohr (=   1.8500 Ang.)
 Radius for H  used is    2.2677 Bohr (=   1.2000 Ang.)
 Radius for N  used is    3.5716 Bohr (=   1.8900 Ang.)
 Radius for Ru used is    3.9117 Bohr (=   2.0700 Ang.)
Calculating surface                               ...        done! (  0.0s)
GEPOL surface points                              ...         4061
GEPOL Volume                                      ...    3991.3027
GEPOL Surface-area                                ...    2016.8962
Calculating surface distance matrix               ...        done! (  0.1s)
Performing Cholesky decomposition & store         ...        done! (  0.5s)
Overall time for CPCM initialization              ...                 0.6s
--------------
SCF ITERATIONS
--------------
ITER       Energy         Delta-E        Max-DP      RMS-DP      [F,P]     Damp
               ***  Starting incremental Fock matrix formation  ***
  0  -6405.5483564085   0.000000000000 0.65916882  0.00252554  3.0670742 0.7000
  1  -6407.3045765241  -1.756220115561 0.12014677  0.00088098  2.1145939 0.7000
  2  -6407.7421814764  -0.437604952339 0.16933459  0.00076176  1.4683126 0.7000
  3  -6408.1177509658  -0.375569489397 0.12086631  0.00053571  1.0214330 0.7000
  4  -6408.3771933583  -0.259442392421 0.07730612  0.00032161  0.7101143 0.7000
  5  -6408.5592629094  -0.182069551175 0.05205511  0.00021737  0.4931231 0.7000
  6  -6408.6900673637  -0.130804454286 0.03908628  0.00016499  0.3423555 0.7000
  7  -6408.7825654578  -0.092498094047 0.03012747  0.00012859  0.2378167 0.7000
                               ***Turning on DIIS***
  8  -6408.8479494781  -0.065384020351 0.02257958  0.00009903  0.1652988 0.7000
  9  -6408.8941315169  -0.046182038827 0.01727935  0.00007906  0.1149216 0.7000
 10  -6408.9267117507  -0.032580233715 0.04251145  0.00020613  0.0802469 0.0000
 11  -6409.0037338533  -0.077022102603 0.00285331  0.00002083  0.0010209 0.0000
 12  -6409.0038501815  -0.000116328207 0.00168153  0.00003494  0.0005122 0.0000
               *** Restarting incremental Fock matrix formation ***
                                   *** Resetting DIIS ***
 13  -6409.0039277171  -0.000077535667 0.00399493  0.00002755  0.0028123 0.0000
 14  -6409.0038659002   0.000061816899 0.00244404  0.00001123  0.0049263 0.0000
 15  -6409.0039490317  -0.000083131470 0.00037075  0.00000535  0.0017759 0.0000
 16  -6409.0039633450  -0.000014313261 0.00027750  0.00000383  0.0005202 0.0000
 17  -6409.0039650983  -0.000001753344 0.00015647  0.00000124  0.0003279 0.0000
 18  -6409.0039647210   0.000000377330 0.00004342  0.00000045  0.0000531 0.0000
                 **** Energy Check signals convergence ****

               *****************************************************
               *                     SUCCESS                       *
               *           SCF CONVERGED AFTER  19 CYCLES          *
               *****************************************************

Old exchange energy                            =   -103.643839528 Eh
New exchange energy                            =   -103.643817861 Eh
Exchange energy change after final integration =      0.000021667 Eh
Total energy after final integration           =  -6409.003943991 Eh
Final COS-X integration done in                =    62.313 sec

SMD CDS free energy correction energy :                -6.37597     Kcal/mol
Total Energy after SMD CDS correction =             -6409.014104751 Eh

----------------
TOTAL SCF ENERGY
----------------

Total Energy       :        -6409.01410475 Eh         -174398.14002 eV

Components:
Nuclear Repulsion  :         7276.98894306 Eh          198016.93613 eV
Electronic Energy  :       -13686.00304781 Eh         -372415.07615 eV
One Electron Energy:       -23203.39768836 Eh         -631396.55068 eV
Two Electron Energy:         9517.39464055 Eh          258981.47453 eV
Max COSX asymmetry :            0.00000830 Eh               0.00023 eV
CPCM Dielectric    :           -0.20975380 Eh              -5.70769 eV
SMD CDS (Gcds)     :           -0.01016076 Eh              -0.27649 eV

Virial components:
Potential Energy   :       -12972.55961923 Eh         -353001.29348 eV
Kinetic Energy     :         6563.54551448 Eh          178603.15346 eV
Virial Ratio       :            1.97645611


DFT components:
N(Alpha)           :      173.000012635219 electrons
N(Beta)            :      173.000012635219 electrons
N(Total)           :      346.000025270438 electrons
E(XC)              :     -293.206514255462 Eh       
DFET-embed. en.    :        0.000000000000 Eh       
CPCM Solvation Model Properties:
Surface-charge          :           -2.06377419
Charge-correction       :            0.01133846 Eh               0.30854 eV
Free-energy (cav+disp)  :           -0.01016076 Eh              -0.27649 eV

---------------
SCF CONVERGENCE
---------------

  Last Energy change         ...   -9.3776e-07  Tolerance :   1.0000e-06
  Last MAX-Density change    ...    0.0000e+00  Tolerance :   1.0000e-05
  Last RMS-Density change    ...    0.0000e+00  Tolerance :   1.0000e-06
  Last DIIS Error            ...    3.1930e-05  Tolerance :   1.0000e-06

             **** THE GBW FILE WAS UPDATED (Ru-PRC_2_SOC-M06_def2SVP.gbw) ****
             **** DENSITY Ru-PRC_2_SOC-M06_def2SVP.scfp WAS UPDATED ****
             **** ENERGY FILE WAS UPDATED (Ru-PRC_2_SOC-M06_def2SVP.en.tmp) ****
             **** THE GBW FILE WAS UPDATED (Ru-PRC_2_SOC-M06_def2SVP.gbw) ****
             **** DENSITY Ru-PRC_2_SOC-M06_def2SVP.scfp WAS UPDATED ****
----------------
ORBITAL ENERGIES
----------------

  NO   OCC          E(Eh)            E(eV) 
   0   2.0000    -829.781929    -22579.5142 
   1   2.0000    -117.886602     -3207.8575 
   2   2.0000    -105.442083     -2869.2250 
   3   2.0000    -105.442078     -2869.2248 
   4   2.0000    -105.441308     -2869.2039 
   5   2.0000     -21.106406      -574.3345 
   6   2.0000     -16.990671      -462.3397 
   7   2.0000     -16.990622      -462.3383 
   8   2.0000     -16.987481      -462.2528 
   9   2.0000     -14.466225      -393.6460 
  10   2.0000     -14.466042      -393.6410 
  11   2.0000     -14.465999      -393.6398 
  12   2.0000     -14.465989      -393.6396 
  13   2.0000     -14.465911      -393.6375 
  14   2.0000     -14.465462      -393.6252 
  15   2.0000     -10.408221      -283.2221 
  16   2.0000     -10.408175      -283.2208 
  17   2.0000     -10.406337      -283.1708 
  18   2.0000     -10.403974      -283.1065 
  19   2.0000     -10.403960      -283.1061 
  20   2.0000     -10.320209      -280.8272 
  21   2.0000     -10.319917      -280.8192 
  22   2.0000     -10.319909      -280.8190 
  23   2.0000     -10.319667      -280.8124 
  24   2.0000     -10.319482      -280.8074 
  25   2.0000     -10.318087      -280.7694 
  26   2.0000     -10.317141      -280.7437 
  27   2.0000     -10.316803      -280.7345 
  28   2.0000     -10.316716      -280.7321 
  29   2.0000     -10.316511      -280.7265 
  30   2.0000     -10.316313      -280.7211 
  31   2.0000     -10.315340      -280.6947 
  32   2.0000     -10.293562      -280.1020 
  33   2.0000     -10.293282      -280.0944 
  34   2.0000     -10.293169      -280.0914 
  35   2.0000     -10.293009      -280.0870 
  36   2.0000     -10.292863      -280.0830 
  37   2.0000     -10.292551      -280.0746 
  38   2.0000     -10.290586      -280.0211 
  39   2.0000     -10.289095      -279.9805 
  40   2.0000     -10.288723      -279.9704 
  41   2.0000     -10.288652      -279.9685 
  42   2.0000     -10.288510      -279.9646 
  43   2.0000     -10.288395      -279.9615 
  44   2.0000     -10.287711      -279.9429 
  45   2.0000     -10.279400      -279.7167 
  46   2.0000     -10.278995      -279.7057 
  47   2.0000     -10.278918      -279.7036 
  48   2.0000     -10.278827      -279.7011 
  49   2.0000     -10.278643      -279.6961 
  50   2.0000     -10.277637      -279.6687 
  51   2.0000     -10.277442      -279.6634 
  52   2.0000     -10.277320      -279.6601 
  53   2.0000     -10.277273      -279.6588 
  54   2.0000     -10.277079      -279.6535 
  55   2.0000     -10.276937      -279.6497 
  56   2.0000     -10.275432      -279.6087 
  57   2.0000     -10.250447      -278.9289 
  58   2.0000     -10.246150      -278.8119 
  59   2.0000      -3.009971       -81.9055 
  60   2.0000      -1.851326       -50.3772 
  61   2.0000      -1.851143       -50.3722 
  62   2.0000      -1.841808       -50.1181 
  63   2.0000      -1.014055       -27.5938 
  64   2.0000      -1.007494       -27.4153 
  65   2.0000      -1.007353       -27.4115 
  66   2.0000      -0.982805       -26.7435 
  67   2.0000      -0.982624       -26.7386 
  68   2.0000      -0.982344       -26.7309 
  69   2.0000      -0.884399       -24.0657 
  70   2.0000      -0.882571       -24.0160 
  71   2.0000      -0.882227       -24.0066 
  72   2.0000      -0.858788       -23.3688 
  73   2.0000      -0.840613       -22.8742 
  74   2.0000      -0.840372       -22.8677 
  75   2.0000      -0.838664       -22.8212 
  76   2.0000      -0.836196       -22.7540 
  77   2.0000      -0.835947       -22.7473 
  78   2.0000      -0.809013       -22.0144 
  79   2.0000      -0.779060       -21.1993 
  80   2.0000      -0.778776       -21.1916 
  81   2.0000      -0.777007       -21.1434 
  82   2.0000      -0.776327       -21.1249 
  83   2.0000      -0.776138       -21.1198 
  84   2.0000      -0.765850       -20.8398 
  85   2.0000      -0.704717       -19.1763 
  86   2.0000      -0.691622       -18.8200 
  87   2.0000      -0.690668       -18.7940 
  88   2.0000      -0.690130       -18.7794 
  89   2.0000      -0.678547       -18.4642 
  90   2.0000      -0.677922       -18.4472 
  91   2.0000      -0.675713       -18.3871 
  92   2.0000      -0.672830       -18.3086 
  93   2.0000      -0.672578       -18.3018 
  94   2.0000      -0.670061       -18.2333 
  95   2.0000      -0.639279       -17.3957 
  96   2.0000      -0.638791       -17.3824 
  97   2.0000      -0.637981       -17.3604 
  98   2.0000      -0.598334       -16.2815 
  99   2.0000      -0.586978       -15.9725 
 100   2.0000      -0.586312       -15.9543 
 101   2.0000      -0.585425       -15.9302 
 102   2.0000      -0.575930       -15.6719 
 103   2.0000      -0.575048       -15.6478 
 104   2.0000      -0.557762       -15.1775 
 105   2.0000      -0.556436       -15.1414 
 106   2.0000      -0.556166       -15.1341 
 107   2.0000      -0.552482       -15.0338 
 108   2.0000      -0.520125       -14.1533 
 109   2.0000      -0.518829       -14.1181 
 110   2.0000      -0.518052       -14.0969 
 111   2.0000      -0.516481       -14.0542 
 112   2.0000      -0.516019       -14.0416 
 113   2.0000      -0.513201       -13.9649 
 114   2.0000      -0.509838       -13.8734 
 115   2.0000      -0.509594       -13.8668 
 116   2.0000      -0.506191       -13.7741 
 117   2.0000      -0.491098       -13.3635 
 118   2.0000      -0.490248       -13.3403 
 119   2.0000      -0.480813       -13.0836 
 120   2.0000      -0.477074       -12.9818 
 121   2.0000      -0.474246       -12.9049 
 122   2.0000      -0.467144       -12.7116 
 123   2.0000      -0.466843       -12.7035 
 124   2.0000      -0.463421       -12.6103 
 125   2.0000      -0.463073       -12.6009 
 126   2.0000      -0.456896       -12.4328 
 127   2.0000      -0.456294       -12.4164 
 128   2.0000      -0.455696       -12.4001 
 129   2.0000      -0.450654       -12.2629 
 130   2.0000      -0.446543       -12.1511 
 131   2.0000      -0.444434       -12.0937 
 132   2.0000      -0.443844       -12.0776 
 133   2.0000      -0.442507       -12.0412 
 134   2.0000      -0.440298       -11.9811 
 135   2.0000      -0.437080       -11.8935 
 136   2.0000      -0.433307       -11.7909 
 137   2.0000      -0.432414       -11.7666 
 138   2.0000      -0.431416       -11.7394 
 139   2.0000      -0.425719       -11.5844 
 140   2.0000      -0.415729       -11.3126 
 141   2.0000      -0.406693       -11.0667 
 142   2.0000      -0.403150       -10.9703 
 143   2.0000      -0.397214       -10.8087 
 144   2.0000      -0.394931       -10.7466 
 145   2.0000      -0.393620       -10.7109 
 146   2.0000      -0.389042       -10.5864 
 147   2.0000      -0.387703       -10.5499 
 148   2.0000      -0.386966       -10.5299 
 149   2.0000      -0.380192       -10.3455 
 150   2.0000      -0.374263       -10.1842 
 151   2.0000      -0.372337       -10.1318 
 152   2.0000      -0.370882       -10.0922 
 153   2.0000      -0.366453        -9.9717 
 154   2.0000      -0.354148        -9.6369 
 155   2.0000      -0.348264        -9.4767 
 156   2.0000      -0.343684        -9.3521 
 157   2.0000      -0.343319        -9.3422 
 158   2.0000      -0.342654        -9.3241 
 159   2.0000      -0.342246        -9.3130 
 160   2.0000      -0.338624        -9.2144 
 161   2.0000      -0.336962        -9.1692 
 162   2.0000      -0.334034        -9.0895 
 163   2.0000      -0.301150        -8.1947 
 164   2.0000      -0.285139        -7.7590 
 165   2.0000      -0.283792        -7.7224 
 166   2.0000      -0.274264        -7.4631 
 167   2.0000      -0.273229        -7.4349 
 168   2.0000      -0.272498        -7.4150 
 169   2.0000      -0.257607        -7.0098 
 170   2.0000      -0.229006        -6.2316 
 171   2.0000      -0.228865        -6.2277 
 172   2.0000      -0.225686        -6.1412 
 173   0.0000      -0.089197        -2.4272 
 174   0.0000      -0.083635        -2.2758 
 175   0.0000      -0.081401        -2.2150 
 176   0.0000      -0.080080        -2.1791 
 177   0.0000      -0.077184        -2.1003 
 178   0.0000      -0.076832        -2.0907 
 179   0.0000      -0.042156        -1.1471 
 180   0.0000      -0.031493        -0.8570 
 181   0.0000      -0.028095        -0.7645 
 182   0.0000      -0.016088        -0.4378 
 183   0.0000      -0.005056        -0.1376 
 184   0.0000      -0.004381        -0.1192 
 185   0.0000       0.016159         0.4397 
 186   0.0000       0.022508         0.6125 
 187   0.0000       0.023229         0.6321 
 188   0.0000       0.038920         1.0591 
 189   0.0000       0.043246         1.1768 
 190   0.0000       0.047798         1.3006 
 191   0.0000       0.057015         1.5515 
 192   0.0000       0.059486         1.6187 
 193   0.0000       0.062240         1.6936 
 194   0.0000       0.063831         1.7369 
 195   0.0000       0.070079         1.9070 
 196   0.0000       0.071816         1.9542 
 197   0.0000       0.073596         2.0027 
 198   0.0000       0.083242         2.2651 
 199   0.0000       0.083783         2.2799 
 200   0.0000       0.092040         2.5045 
 201   0.0000       0.093962         2.5568 
 202   0.0000       0.096286         2.6201 
 203   0.0000       0.101451         2.7606 
 204   0.0000       0.105076         2.8593 
 205   0.0000       0.107518         2.9257 
 206   0.0000       0.108483         2.9520 
 207   0.0000       0.111735         3.0405 
 208   0.0000       0.114942         3.1277 
 209   0.0000       0.118507         3.2247 
 210   0.0000       0.119726         3.2579 
 211   0.0000       0.122606         3.3363 
 212   0.0000       0.124554         3.3893 
 213   0.0000       0.127563         3.4712 
 214   0.0000       0.131044         3.5659 
 215   0.0000       0.133427         3.6307 
 216   0.0000       0.140913         3.8344 
 217   0.0000       0.147979         4.0267 
 218   0.0000       0.151581         4.1247 
 219   0.0000       0.156313         4.2535 
 220   0.0000       0.156620         4.2618 
 221   0.0000       0.160128         4.3573 
 222   0.0000       0.160802         4.3757 
 223   0.0000       0.163943         4.4611 
 224   0.0000       0.183883         5.0037 
 225   0.0000       0.187585         5.1044 
 226   0.0000       0.187967         5.1148 
 227   0.0000       0.191389         5.2080 
 228   0.0000       0.193465         5.2644 
 229   0.0000       0.213506         5.8098 
 230   0.0000       0.218302         5.9403 
 231   0.0000       0.220090         5.9889 
 232   0.0000       0.221070         6.0156 
 233   0.0000       0.225402         6.1335 
 234   0.0000       0.226678         6.1682 
 235   0.0000       0.229397         6.2422 
 236   0.0000       0.231392         6.2965 
 237   0.0000       0.238220         6.4823 
 238   0.0000       0.241784         6.5793 
 239   0.0000       0.244117         6.6428 
 240   0.0000       0.245753         6.6873 
 241   0.0000       0.248202         6.7539 
 242   0.0000       0.252009         6.8575 
 243   0.0000       0.263126         7.1600 
 244   0.0000       0.264489         7.1971 
 245   0.0000       0.269107         7.3228 
 246   0.0000       0.271617         7.3911 
 247   0.0000       0.272333         7.4106 
 248   0.0000       0.274874         7.4797 
 249   0.0000       0.276296         7.5184 
 250   0.0000       0.278727         7.5845 
 251   0.0000       0.279134         7.5956 
 252   0.0000       0.280522         7.6334 
 253   0.0000       0.284961         7.7542 
 254   0.0000       0.286468         7.7952 
 255   0.0000       0.292324         7.9545 
 256   0.0000       0.294238         8.0066 
 257   0.0000       0.300508         8.1772 
 258   0.0000       0.301592         8.2067 
 259   0.0000       0.307211         8.3596 
 260   0.0000       0.313292         8.5251 
 261   0.0000       0.317179         8.6309 
 262   0.0000       0.319429         8.6921 
 263   0.0000       0.323037         8.7903 
 264   0.0000       0.326040         8.8720 
 265   0.0000       0.326388         8.8815 
 266   0.0000       0.330613         8.9964 
 267   0.0000       0.331590         9.0230 
 268   0.0000       0.343817         9.3557 
 269   0.0000       0.344221         9.3667 
 270   0.0000       0.346932         9.4405 
 271   0.0000       0.352327         9.5873 
 272   0.0000       0.353586         9.6216 
 273   0.0000       0.358942         9.7673 
 274   0.0000       0.370391        10.0788 
 275   0.0000       0.373576        10.1655 
 276   0.0000       0.376761        10.2522 
 277   0.0000       0.382073        10.3967 
 278   0.0000       0.390930        10.6378 
 279   0.0000       0.399032        10.8582 
 280   0.0000       0.400384        10.8950 
 281   0.0000       0.403460        10.9787 
 282   0.0000       0.404801        11.0152 
 283   0.0000       0.407180        11.0799 
 284   0.0000       0.410969        11.1830 
 285   0.0000       0.413143        11.2422 
 286   0.0000       0.415340        11.3020 
 287   0.0000       0.415620        11.3096 
 288   0.0000       0.417097        11.3498 
 289   0.0000       0.423553        11.5255 
 290   0.0000       0.425740        11.5850 
 291   0.0000       0.430583        11.7168 
 292   0.0000       0.432673        11.7736 
 293   0.0000       0.434063        11.8115 
 294   0.0000       0.436952        11.8901 
 295   0.0000       0.437268        11.8987 
 296   0.0000       0.441516        12.0143 
 297   0.0000       0.444700        12.1009 
 298   0.0000       0.446972        12.1627 
 299   0.0000       0.449744        12.2382 
 300   0.0000       0.451182        12.2773 
 301   0.0000       0.451596        12.2886 
 302   0.0000       0.452183        12.3045 
 303   0.0000       0.458311        12.4713 
 304   0.0000       0.459927        12.5152 
 305   0.0000       0.463006        12.5990 
 306   0.0000       0.470626        12.8064 
 307   0.0000       0.472901        12.8683 
 308   0.0000       0.473506        12.8847 
 309   0.0000       0.476742        12.9728 
 310   0.0000       0.479983        13.0610 
 311   0.0000       0.480562        13.0768 
 312   0.0000       0.485070        13.1994 
 313   0.0000       0.500027        13.6064 
 314   0.0000       0.502618        13.6769 
 315   0.0000       0.502967        13.6864 
 316   0.0000       0.505958        13.7678 
 317   0.0000       0.512733        13.9522 
 318   0.0000       0.513351        13.9690 
 319   0.0000       0.515546        14.0287 
 320   0.0000       0.518796        14.1172 
 321   0.0000       0.519709        14.1420 
 322   0.0000       0.521048        14.1784 
 323   0.0000       0.522102        14.2071 
 324   0.0000       0.524800        14.2805 
 325   0.0000       0.526440        14.3252 
 326   0.0000       0.529867        14.4184 
 327   0.0000       0.531797        14.4709 
 328   0.0000       0.535330        14.5671 
 329   0.0000       0.541066        14.7232 
 330   0.0000       0.543466        14.7885 
 331   0.0000       0.547540        14.8993 
 332   0.0000       0.552139        15.0245 
 333   0.0000       0.555207        15.1079 
 334   0.0000       0.565181        15.3793 
 335   0.0000       0.568367        15.4661 
 336   0.0000       0.577940        15.7265 
 337   0.0000       0.578521        15.7424 
 338   0.0000       0.581508        15.8236 
 339   0.0000       0.584038        15.8925 
 340   0.0000       0.585838        15.9415 
 341   0.0000       0.590433        16.0665 
 342   0.0000       0.593385        16.1468 
 343   0.0000       0.596555        16.2331 
 344   0.0000       0.601859        16.3774 
 345   0.0000       0.603720        16.4281 
 346   0.0000       0.604671        16.4539 
 347   0.0000       0.606342        16.4994 
 348   0.0000       0.609613        16.5884 
[...]
   0  45   23368.8    427.9      3.46424 (  0.02483,  0.01478) ( -0.01639, -0.00976) ( -0.01153, -0.00687)
   0  46   23440.8    426.6      0.01916 (  0.00327, -0.00039) (  0.00967, -0.00114) (  0.02197, -0.00259)
   0  47   23646.1    422.9     42.28595 (  0.06950, -0.00231) ( -0.07036,  0.00234) ( -0.05200,  0.00173)
   0  48   23698.3    422.0     39.62594 (  0.07797, -0.02483) ( -0.00504,  0.00160) ( -0.00668,  0.00213)
   0  49   23772.2    420.7      0.81819 ( -0.00705, -0.00604) ( -0.01405, -0.01203) ( -0.00348, -0.00298)
   0  50   23785.6    420.4      3.01651 (  0.02382,  0.01305) ( -0.02247, -0.01230) ( -0.01143, -0.00626)
   0  51   23889.6    418.6      1.72725 (  0.02595, -0.01558) (  0.02298, -0.01380) ( -0.00577,  0.00346)
   0  52   24115.1    414.7     -1.60771 (  0.00050,  0.00050) (  0.00151,  0.00150) (  0.01256,  0.01247)
   0  53   24137.2    414.3     -1.06145 ( -0.00057, -0.00185) (  0.00494,  0.01601) ( -0.00289, -0.00938)
   0  54   24156.5    414.0     -0.76492 (  0.01517, -0.01378) ( -0.00232,  0.00211) ( -0.00012,  0.00011)
   0  55   24184.7    413.5      0.46913 (  0.00001,  0.00084) ( -0.00023, -0.01432) ( -0.00012, -0.00709)
   0  56   24264.1    412.1     -0.14823 ( -0.00001, -0.00001) ( -0.00261, -0.00284) (  0.00673,  0.00731)
   0  57   24290.5    411.7     -0.01527 ( -0.00296,  0.00205) (  0.00601, -0.00415) (  0.00453, -0.00313)
   0  58   24663.7    405.5    -11.17445 (  0.01972,  0.00224) ( -0.03619, -0.00410) (  0.02005,  0.00227)
   0  59   24743.2    404.2    -19.04985 ( -0.05631,  0.02259) ( -0.01084,  0.00435) (  0.05737, -0.02301)
   0  60   25038.8    399.4     36.04006 ( -0.05627,  0.06272) (  0.03079, -0.03432) (  0.01040, -0.01159)
   0  61   25062.0    399.0     31.28261 (  0.01225,  0.01644) (  0.06058,  0.08133) (  0.02371,  0.03183)
   0  62   25231.2    396.3     -2.03657 ( -0.00100, -0.00014) (  0.00672,  0.00096) ( -0.02659, -0.00380)
   0  63   25269.5    395.7     -0.60873 ( -0.00334, -0.00159) ( -0.01302, -0.00619) (  0.00267,  0.00127)
   0  64   25318.8    395.0      7.59768 (  0.03974, -0.01419) (  0.05294, -0.01891) (  0.00498, -0.00178)
   0  65   25343.4    394.6      0.03696 (  0.01159,  0.03491) ( -0.01001, -0.03013) ( -0.00262, -0.00790)
   0  66   25370.1    394.2     -1.66398 (  0.01186,  0.00654) ( -0.01745, -0.00962) ( -0.02214, -0.01221)
   0  67   25408.5    393.6      6.77049 ( -0.01678, -0.00806) (  0.01446,  0.00694) (  0.02329,  0.01118)
   0  68   25725.4    388.7     -2.25860 ( -0.01420, -0.00128) ( -0.02693, -0.00243) ( -0.03924, -0.00355)
   0  69   25742.8    388.5     -4.19817 ( -0.00243, -0.02167) (  0.00210,  0.01873) ( -0.00372, -0.03316)
   0  70   25830.5    387.1      0.76582 ( -0.00377,  0.00253) ( -0.00078,  0.00053) (  0.00921, -0.00619)
   0  71   25845.0    386.9     -1.95343 (  0.01998, -0.00187) ( -0.00915,  0.00086) ( -0.03161,  0.00296)
   0  72   26080.7    383.4     -0.11995 (  0.03468,  0.00921) ( -0.02068, -0.00549) ( -0.05431, -0.01442)
   0  73   26101.0    383.1      2.66118 ( -0.00188,  0.00298) (  0.02734, -0.04344) (  0.00831, -0.01320)
   0  74   26275.4    380.6    -59.71101 (  0.01444,  0.05816) ( -0.00095, -0.00383) (  0.03403,  0.13710)
   0  75   26963.8    370.9     -0.05677 ( -0.00032,  0.00247) (  0.00067, -0.00516) ( -0.00026,  0.00196)
   0  76   26970.7    370.8     -0.00836 (  0.00222, -0.00224) ( -0.00051,  0.00051) ( -0.00129,  0.00129)
   0  77   26977.8    370.7     -0.11663 ( -0.00335, -0.00068) (  0.00232,  0.00047) ( -0.01135, -0.00232)
   0  78   27071.7    369.4      0.21547 (  0.00579, -0.00098) ( -0.00540,  0.00091) ( -0.01050,  0.00177)
   0  79   27088.0    369.2      0.07917 (  0.01150,  0.01923) ( -0.00734, -0.01228) (  0.00997,  0.01668)
   0  80   27113.8    368.8     -0.52623 (  0.01246, -0.00654) (  0.00676, -0.00355) (  0.00491, -0.00258)
   0  81   27165.9    368.1      0.03063 ( -0.00073, -0.00000) (  0.01569,  0.00008) (  0.00193,  0.00001)
   0  82   27190.6    367.8      0.20891 ( -0.01245,  0.00690) (  0.00328, -0.00182) ( -0.01078,  0.00597)
   0  83   27202.5    367.6     -0.08795 (  0.00546,  0.00402) (  0.01175,  0.00865) (  0.00294,  0.00217)
   0  84   27306.9    366.2      1.08882 (  0.00495,  0.00153) ( -0.03806, -0.01178) ( -0.01395, -0.00432)
   0  85   27623.6    362.0     -0.01156 (  0.00544, -0.00188) ( -0.00084,  0.00029) (  0.00343, -0.00118)
   0  86   27624.5    362.0     -0.04610 (  0.00286,  0.00147) (  0.00206,  0.00106) ( -0.00309, -0.00159)
   0  87   27638.3    361.8     -0.02497 ( -0.00195, -0.00175) (  0.00055,  0.00050) (  0.00419,  0.00377)
   0  88   28269.7    353.7     -0.10981 (  0.00261,  0.01810) (  0.00021,  0.00144) ( -0.00001, -0.00008)
   0  89   28321.5    353.1     -0.16167 ( -0.02609, -0.01797) ( -0.00615, -0.00424) (  0.05163,  0.03556)
   0  90   28354.0    352.7      0.05892 ( -0.01503, -0.01159) (  0.02404,  0.01854) (  0.01299,  0.01002)
   0  91   28390.9    352.2     -0.05457 ( -0.00010, -0.01472) ( -0.00005, -0.00692) ( -0.00005, -0.00673)
   0  92   28398.5    352.1      0.07759 (  0.00671,  0.00225) (  0.01316,  0.00441) ( -0.01498, -0.00502)
   0  93   28403.5    352.1     -0.03635 (  0.01647, -0.00877) ( -0.01694,  0.00902) ( -0.02370,  0.01262)
   0  94   28652.1    349.0     -0.02069 (  0.00634, -0.00762) (  0.00663, -0.00798) (  0.00056, -0.00068)
   0  95   28652.4    349.0      0.00078 ( -0.00372, -0.00113) ( -0.00367, -0.00112) (  0.00077,  0.00023)
   0  96   28652.9    349.0      0.00246 ( -0.00004, -0.00171) (  0.00002,  0.00097) (  0.00001,  0.00029)
   0  97   28945.6    345.5     -0.14198 (  0.00743, -0.04060) (  0.00267, -0.01460) (  0.00109, -0.00593)
   0  98   28952.5    345.4     -0.00211 (  0.00259, -0.00126) (  0.00638, -0.00311) (  0.00452, -0.00220)
   0  99   28953.9    345.4     -0.00285 ( -0.00139, -0.00195) (  0.00406,  0.00570) (  0.00394,  0.00552)
   0 100   29061.3    344.1     -0.55011 ( -0.08884,  0.00354) ( -0.05923,  0.00236) ( -0.00773,  0.00031)
   0 101   29082.4    343.9      0.02030 (  0.00356, -0.00838) ( -0.00046,  0.00109) (  0.00265, -0.00622)
   0 102   29084.1    343.8      0.01587 ( -0.00083, -0.01100) ( -0.00070, -0.00922) ( -0.00025, -0.00327)
   0 103   29231.8    342.1     -1.65563 (  0.10550, -0.19395) (  0.06884, -0.12656) (  0.01303, -0.02395)
   0 104   29575.5    338.1     -0.20328 (  0.01101,  0.02346) (  0.00738,  0.01572) (  0.00239,  0.00510)
   0 105   29612.0    337.7     -0.13646 ( -0.00430,  0.01367) (  0.00505, -0.01608) ( -0.00131,  0.00416)
   0 106   29687.0    336.8     -0.05476 ( -0.00195,  0.01960) ( -0.00261,  0.02623) ( -0.00031,  0.00310)
   0 107   29690.1    336.8     -0.05304 (  0.00393,  0.00109) ( -0.01585, -0.00439) ( -0.00016, -0.00004)
   0 108   29692.9    336.8      0.06285 (  0.00783,  0.00707) ( -0.00546, -0.00494) (  0.00001,  0.00000)
   0 109   29736.4    336.3      0.00631 ( -0.01161,  0.00141) ( -0.01047,  0.00127) ( -0.00305,  0.00037)
   0 110   29740.5    336.2     -0.05064 ( -0.00525, -0.01929) ( -0.00002, -0.00006) ( -0.00136, -0.00500)
   0 111   29747.4    336.2      0.06077 ( -0.00795, -0.00545) ( -0.00484, -0.00332) (  0.00005,  0.00003)
   0 112   30015.1    333.2     -4.67056 ( -0.16043,  0.07015) ( -0.34501,  0.15086) (  0.00557, -0.00243)
   0 113   30357.0    329.4    -67.61802 ( -0.14099, -0.12335) (  0.11647,  0.10189) (  0.15342,  0.13423)
   0 114   30420.7    328.7     -1.91480 (  0.10810, -0.15330) (  0.04815, -0.06828) (  0.01216, -0.01724)
   0 115   30476.9    328.1     -0.07032 ( -0.07949, -0.27663) ( -0.04143, -0.14416) ( -0.00705, -0.02452)
   0 116   30560.4    327.2     -4.56133 (  0.15407,  0.13761) (  0.13246,  0.11831) (  0.01883,  0.01681)
   0 117   30674.0    326.0      0.03565 ( -0.00589,  0.02715) (  0.01014, -0.04675) (  0.02051, -0.09454)
   0 118   30778.2    324.9     -0.00892 ( -0.00349,  0.01274) ( -0.00224,  0.00817) ( -0.00005,  0.00020)
   0 119   30781.9    324.9     -0.06708 ( -0.00728, -0.01467) ( -0.00834, -0.01681) ( -0.00265, -0.00535)
   0 120   30782.9    324.9     -0.08011 (  0.00693, -0.00287) (  0.00891, -0.00369) (  0.00413, -0.00171)
   0 121   30810.7    324.6      0.01069 (  0.00676, -0.00239) (  0.00965, -0.00342) (  0.00776, -0.00275)
   0 122   30891.5    323.7      0.38169 (  0.17578,  0.06528) (  0.21788,  0.08092) (  0.02852,  0.01059)
   0 123   30908.0    323.5     -0.01931 ( -0.00332,  0.00100) ( -0.01304,  0.00394) ( -0.00074,  0.00022)
   0 124   30917.3    323.4     -4.48120 (  0.01316, -0.12245) (  0.01256, -0.11684) ( -0.00022,  0.00208)
   0 125   30919.5    323.4      0.57517 (  0.00444,  0.00563) (  0.01863,  0.02362) (  0.00588,  0.00745)
   0 126   31067.9    321.9      0.05457 (  0.01559, -0.01032) (  0.00986, -0.00653) ( -0.02207,  0.01461)
   0 127   31087.7    321.7     -0.10958 ( -0.00102,  0.01476) ( -0.00023,  0.00333) (  0.00029, -0.00411)
   0 128   31088.9    321.7      0.03894 (  0.00963,  0.00256) (  0.00579,  0.00154) ( -0.01022, -0.00272)
   0 129   31284.3    319.6      3.78411 ( -0.07364, -0.02395) (  0.11809,  0.03840) (  0.13473,  0.04382)
   0 130   31394.4    318.5     -6.32710 ( -0.05121,  0.03771) (  0.00884, -0.00651) ( -0.00886,  0.00652)
   0 131   31427.1    318.2     -1.95503 ( -0.15931,  0.04898) (  0.04376, -0.01345) ( -0.00775,  0.00238)
   0 132   31461.7    317.8      4.28195 ( -0.06871, -0.10289) ( -0.02313, -0.03464) ( -0.03400, -0.05092)
   0 133   31522.2    317.2     -0.04344 ( -0.00195,  0.03384) ( -0.00149,  0.02590) ( -0.00140,  0.02435)
   0 134   31570.6    316.8      0.12900 (  0.04992, -0.04814) ( -0.00756,  0.00729) (  0.00901, -0.00869)
   0 135   31611.9    316.3     -0.55239 (  0.00138,  0.00676) (  0.00269,  0.01316) (  0.00270,  0.01322)
   0 136   31781.9    314.6     -2.31267 ( -0.01701, -0.00835) (  0.00349,  0.00171) ( -0.02418, -0.01187)
   0 137   32045.5    312.1    -34.62451 ( -0.44542,  0.09095) (  0.48728, -0.09950) ( -0.04025,  0.00822)
   0 138   32276.3    309.8     -0.19556 ( -0.01008,  0.00609) (  0.02129, -0.01286) ( -0.01483,  0.00895)
   0 139   32277.1    309.8      0.06168 (  0.06403,  0.02144) ( -0.06232, -0.02087) ( -0.03428, -0.01148)
   0 140   32374.1    308.9      4.31703 ( -0.02241, -0.04145) (  0.02522,  0.04665) ( -0.01013, -0.01874)
   0 141   32546.8    307.3     -7.10213 (  0.08400,  0.05648) ( -0.00608, -0.00408) ( -0.49108, -0.33018)
   0 142   32596.8    306.8     30.06503 (  0.01395, -0.00231) ( -0.02000,  0.00331) (  0.39725, -0.06576)
   0 143   32822.7    304.7      2.09566 (  0.03500,  0.00150) (  0.00244,  0.00010) ( -0.10389, -0.00444)
   0 144   32889.4    304.0      0.30970 ( -0.02113, -0.01912) (  0.00832,  0.00752) (  0.01513,  0.01369)
   0 145   32905.3    303.9      0.01376 (  0.00540,  0.00810) (  0.00123,  0.00184) ( -0.01038, -0.01557)
   0 146   32938.2    303.6     -1.17315 ( -0.01077, -0.00146) (  0.01405,  0.00190) (  0.05032,  0.00682)
   0 147   33036.4    302.7      0.10540 ( -0.00103, -0.00065) ( -0.00672, -0.00425) (  0.01463,  0.00926)
   0 148   33043.2    302.6     -0.01372 ( -0.00016, -0.00009) (  0.00052,  0.00030) (  0.00837,  0.00488)
   0 149   33044.4    302.6     -0.17208 (  0.00656, -0.00479) ( -0.01058,  0.00773) (  0.01965, -0.01436)
   0 150   33195.7    301.2      5.78198 ( -0.02570,  0.04696) (  0.00983, -0.01796) (  0.01433, -0.02618)
   0 151   33486.5    298.6     -7.74130 (  0.00183,  0.06442) ( -0.00096, -0.03377) ( -0.00141, -0.04972)
   0 152   33512.3    298.4     -3.52461 (  0.02735, -0.02178) ( -0.00084,  0.00067) ( -0.01984,  0.01580)
   0 153   33522.7    298.3     -0.47164 (  0.01590,  0.00075) ( -0.01316, -0.00062) ( -0.00919, -0.00043)
   0 154   33538.2    298.2     -1.13584 (  0.00021,  0.00060) (  0.01810,  0.05256) (  0.01173,  0.03408)
   0 155   33625.9    297.4      0.17827 (  0.02050,  0.04612) ( -0.00213, -0.00480) (  0.00379,  0.00852)
   0 156   33652.5    297.2      0.96901 (  0.01185,  0.01550) (  0.01089,  0.01425) (  0.03386,  0.04428)
   0 157   33812.3    295.8     19.81878 (  0.07657,  0.05745) (  0.08939,  0.06707) (  0.05748,  0.04312)
   0 158   33832.8    295.6     -0.15162 (  0.00623, -0.00104) ( -0.02032,  0.00340) ( -0.00622,  0.00104)
   0 159   33848.9    295.4      0.21112 (  0.01082, -0.01282) ( -0.00391,  0.00464) ( -0.00296,  0.00350)
   0 160   33858.6    295.3      0.07449 ( -0.00001, -0.00014) (  0.00107,  0.01126) (  0.00059,  0.00614)
   0 161   33898.0    295.0      2.66303 ( -0.06239, -0.07615) ( -0.04264, -0.05204) ( -0.00508, -0.00620)
   0 162   33911.2    294.9      1.34648 ( -0.04113, -0.06471) ( -0.01556, -0.02448) ( -0.00051, -0.00080)
   0 163   33929.9    294.7     -1.80730 ( -0.12043, -0.08984) (  0.02079,  0.01551) ( -0.03669, -0.02737)
   0 164   34014.8    294.0      3.94555 ( -0.02392,  0.02743) (  0.06231, -0.07143) (  0.01313, -0.01506)
   0 165   34081.6    293.4      6.84088 ( -0.00629,  0.00037) (  0.19281, -0.01125) ( -0.21020,  0.01226)
   0 166   34282.3    291.7      0.02159 (  0.00065, -0.00191) ( -0.00363,  0.01073) ( -0.00151,  0.00447)
   0 167   34317.3    291.4     -2.92630 (  0.06090,  0.03908) ( -0.04830, -0.03100) ( -0.08567, -0.05498)
   0 168   34342.5    291.2     -0.15622 (  0.01748,  0.00490) ( -0.00050, -0.00014) (  0.00711,  0.00199)
   0 169   34379.6    290.9    -61.19513 ( -0.28905, -0.01002) (  0.18108,  0.00628) (  0.27830,  0.00965)
   0 170   34428.6    290.5     -1.52504 ( -0.00732,  0.03328) (  0.00480, -0.02181) (  0.00721, -0.03278)
   0 171   34447.6    290.3     -0.03719 (  0.00369,  0.00257) ( -0.00098, -0.00068) ( -0.00542, -0.00377)
   0 172   34467.9    290.1     -1.58857 ( -0.00744,  0.03077) (  0.00386, -0.01596) (  0.00824, -0.03410)
   0 173   34536.7    289.5     -0.70743 ( -0.02229,  0.03807) (  0.00165, -0.00282) (  0.01748, -0.02985)
   0 174   34598.5    289.0     -0.03405 ( -0.01001, -0.00915) ( -0.00051, -0.00046) (  0.00771,  0.00705)
   0 175   34637.1    288.7     -1.61083 (  0.01720,  0.03656) ( -0.01489, -0.03165) ( -0.01889, -0.04014)
   0 176   34742.8    287.8      7.99596 (  0.00182, -0.00099) (  0.13283, -0.07217) (  0.08462, -0.04598)
   0 177   34809.3    287.3     14.97582 ( -0.05456,  0.01198) (  0.14667, -0.03221) (  0.21217, -0.04659)
   0 178   34902.0    286.5      0.61609 ( -0.06653, -0.03809) (  0.04863,  0.02784) (  0.07755,  0.04439)
   0 179   34914.3    286.4     -0.49844 ( -0.03755,  0.04300) (  0.03740, -0.04283) (  0.05194, -0.05947)
   0 180   34943.3    286.2     -1.83319 (  0.18113, -0.04814) ( -0.09518,  0.02529) ( -0.23455,  0.06233)
   0 181   35040.0    285.4    -32.95837 (  0.26772, -0.06635) ( -0.25857,  0.06408) ( -0.35625,  0.08829)
   0 182   35134.9    284.6    -21.71048 (  0.01417, -0.12901) ( -0.01264,  0.11509) ( -0.01654,  0.15051)
   0 183   35165.5    284.4     -8.02399 ( -0.03923,  0.06537) (  0.04990, -0.08316) (  0.05735, -0.09558)
   0 184   35197.0    284.1      1.22508 (  0.03883,  0.05883) ( -0.00829, -0.01256) ( -0.06203, -0.09399)
   0 185   35212.9    284.0     -1.21466 ( -0.02694, -0.00424) (  0.03316,  0.00521) (  0.04114,  0.00647)
   0 186   35217.7    283.9     -6.16823 (  0.00426,  0.06695) ( -0.00361, -0.05666) ( -0.00519, -0.08148)
   0 187   35231.1    283.8     -1.83313 (  0.00329, -0.00788) ( -0.01370,  0.03288) ( -0.00551,  0.01323)
   0 188   35280.1    283.4      6.01887 ( -0.01934,  0.03419) (  0.03545, -0.06267) (  0.02423, -0.04283)
   0 189   35367.5    282.7    -34.55542 ( -0.10453,  0.04874) (  0.15995, -0.07459) (  0.20626, -0.09618)
   0 190   35414.3    282.4    -27.01500 (  0.15549,  0.05713) ( -0.15487, -0.05690) ( -0.21170, -0.07779)
   0 191   35482.9    281.8    -26.06677 (  0.20189,  0.02882) ( -0.06328, -0.00903) ( -0.24486, -0.03495)
   0 192   35620.4    280.7    -15.40800 (  0.05829, -0.14859) ( -0.00964,  0.02457) (  0.00031, -0.00078)
   0 193   36040.4    277.5      1.81708 (  0.01816, -0.02009) ( -0.01827,  0.02022) ( -0.06814,  0.07541)
   0 194   36166.5    276.5    -62.35890 (  0.06999,  0.11055) (  0.11062,  0.17473) ( -0.06549, -0.10344)
   0 195   36372.6    274.9      2.50558 (  0.02271, -0.10872) (  0.04775, -0.22859) ( -0.01650,  0.07899)
   0 196   36432.3    274.5    -22.16702 ( -0.05230,  0.10512) ( -0.06590,  0.13245) (  0.02167, -0.04356)
   0 197   36582.1    273.4     11.54833 ( -0.01608, -0.05440) (  0.03689,  0.12479) ( -0.02013, -0.06811)
   0 198   36686.6    272.6      2.82193 ( -0.02243, -0.00085) (  0.06974,  0.00263) ( -0.06062, -0.00229)
   0 199   36750.7    272.1     19.47314 ( -0.05548, -0.10908) ( -0.02278, -0.04479) ( -0.02958, -0.05816)
   0 200   36812.9    271.6     14.84863 ( -0.00437,  0.14851) (  0.00193, -0.06544) ( -0.00031,  0.01049)

*The complex numbers are printed as (real, imaginary)

The electronic components of the SOC ground state dipole moment in a.u. are:
           X                     Y                     Z
( 17.95879, -0.00000) ( -1.16256, -0.00000) ( 10.69353,  0.00000)

Total run time:     3447.435 sec

           *** ORCA-CIS/TD-DFT FINISHED WITHOUT ERROR ***

Maximum memory used throughout the entire CIS-calculation: 5320.4 MB

---------------------------
SOC CIS/TD-DFT TOTAL ENERGY
---------------------------

    E(SCF)        =  -6409.014104751 Eh
    E(SOC CIS)    =      0.084549191 Eh (SOC Root  1)
    ----------------------------- ---------
    E(tot)        =  -6408.929555560 Eh


-------------------------   --------------------
FINAL SINGLE POINT ENERGY     -6408.929555559705
-------------------------   --------------------


                            ***************************************
                            *     ORCA property calculations      *
                            ***************************************

                                    ---------------------
                                    Active property flags
                                    ---------------------
   (+) Dipole Moment


------------------------------------------------------------------------------
                       ORCA ELECTRIC PROPERTIES CALCULATION
------------------------------------------------------------------------------

Dipole Moment Calculation                       ... on
Quadrupole Moment Calculation                   ... off
Polarizability Calculation                      ... off
GBWName                                         ... Ru-PRC_2_SOC-M06_def2SVP.gbw
Electron density                                ... Ru-PRC_2_SOC-M06_def2SVP.scfp
The origin for moment calculation is the CENTER OF MASS  = ( 0.048621, -0.003943  0.029538)

-------------
DIPOLE MOMENT
-------------
                                X             Y             Z
Electronic contribution:     17.95779      -1.16241      10.69305
Nuclear contribution   :    -16.92002       1.37223     -10.27936
                        -----------------------------------------
Total Dipole Moment    :      1.03777       0.20983       0.41369
                        -----------------------------------------
Magnitude (a.u.)       :      1.13672
Magnitude (Debye)      :      2.88931



--------------------
Rotational spectrum 
--------------------
 
Rotational constants in cm-1:     0.002934     0.002552     0.002107 
Rotational constants in MHz :    87.973432    76.515001    63.164273 

 Dipole components along the rotational axes: 
x,y,z [a.u.] :    -1.032073     0.204270     0.430385 
x,y,z [Debye]:    -2.623322     0.519213     1.093951 

 

Timings for individual modules:

Sum of individual times         ...     4075.749 sec (=  67.929 min)
GTO integral calculation        ...        3.103 sec (=   0.052 min)   0.1 %
Relativistic integrals          ...       24.367 sec (=   0.406 min)   0.6 %
SCF iterations                  ...      600.384 sec (=  10.006 min)  14.7 %
CIS module                      ...     3447.895 sec (=  57.465 min)  84.6 %
                             ****ORCA TERMINATED NORMALLY****
TOTAL RUN TIME: 0 days 1 hours 7 minutes 57 seconds 145 msec
