
                                 *****************
                                 * O   R   C   A *
                                 *****************

                                            #,                                       
                                            ###                                      
                                            ####                                     
                                            #####                                    
                                            ######                                   
                                           ########,                                 
                                     ,,################,,,,,                         
                               ,,#################################,,                 
                          ,,##########################################,,             
                       ,#########################################, ''#####,          
                    ,#############################################,,   '####,        
                  ,##################################################,,,,####,       
                ,###########''''           ''''###############################       
              ,#####''   ,,,,##########,,,,          '''####'''          '####       
            ,##' ,,,,###########################,,,                        '##       
           ' ,,###''''                  '''############,,,                           
         ,,##''                                '''############,,,,        ,,,,,,###''
      ,#''                                            '''#######################'''  
     '                                                          ''''####''''         
             ,#######,   #######,   ,#######,      ##                                
            ,#'     '#,  ##    ##  ,#'     '#,    #''#        ######   ,####,        
            ##       ##  ##   ,#'  ##            #'  '#       #        #'  '#        
            ##       ##  #######   ##           ,######,      #####,   #    #        
            '#,     ,#'  ##    ##  '#,     ,#' ,#      #,         ##   #,  ,#        
             '#######'   ##     ##  '#######'  #'      '#     #####' # '####'        



                  #######################################################
                  #                        -***-                        #
                  #          Department of theory and spectroscopy      #
                  #    Directorship and core code : Frank Neese         #
                  #        Max Planck Institute fuer Kohlenforschung    #
                  #                Kaiser Wilhelm Platz 1               #
                  #                 D-45470 Muelheim/Ruhr               #
                  #                      Germany                        #
                  #                                                     #
                  #                  All rights reserved                #
                  #                        -***-                        #
                  #######################################################


                         Program Version 5.0.4 -  RELEASE  -


 With contributions from (in alphabetic order):
   Daniel Aravena         : Magnetic Suceptibility
   Michael Atanasov       : Ab Initio Ligand Field Theory (pilot matlab implementation)
   Alexander A. Auer      : GIAO ZORA, VPT2 properties, NMR spectrum
   Ute Becker             : Parallelization
   Giovanni Bistoni       : ED, misc. LED, open-shell LED, HFLD
   Martin Brehm           : Molecular dynamics
   Dmytro Bykov           : SCF Hessian
   Vijay G. Chilkuri      : MRCI spin determinant printing, contributions to CSF-ICE
   Dipayan Datta          : RHF DLPNO-CCSD density
   Achintya Kumar Dutta   : EOM-CC, STEOM-CC
   Dmitry Ganyushin       : Spin-Orbit,Spin-Spin,Magnetic field MRCI
   Miquel Garcia          : C-PCM and meta-GGA Hessian, CC/C-PCM, Gaussian charge scheme
   Yang Guo               : DLPNO-NEVPT2, F12-NEVPT2, CIM, IAO-localization
   Andreas Hansen         : Spin unrestricted coupled pair/coupled cluster methods
   Benjamin Helmich-Paris : MC-RPA, TRAH-SCF, COSX integrals
   Lee Huntington         : MR-EOM, pCC
   Robert Izsak           : Overlap fitted RIJCOSX, COSX-SCS-MP3, EOM
   Marcus Kettner         : VPT2
   Christian Kollmar      : KDIIS, OOCD, Brueckner-CCSD(T), CCSD density, CASPT2, CASPT2-K
   Simone Kossmann        : Meta GGA functionals, TD-DFT gradient, OOMP2, MP2 Hessian
   Martin Krupicka        : Initial AUTO-CI
   Lucas Lang             : DCDCAS
   Marvin Lechner         : AUTO-CI (C++ implementation), FIC-MRCC
   Dagmar Lenk            : GEPOL surface, SMD
   Dimitrios Liakos       : Extrapolation schemes; Compound Job, initial MDCI parallelization
   Dimitrios Manganas     : Further ROCIS development; embedding schemes
   Dimitrios Pantazis     : SARC Basis sets
   Anastasios Papadopoulos: AUTO-CI, single reference methods and gradients
   Taras Petrenko         : DFT Hessian,TD-DFT gradient, ASA, ECA, R-Raman, ABS, FL, XAS/XES, NRVS
   Peter Pinski           : DLPNO-MP2, DLPNO-MP2 Gradient
   Christoph Reimann      : Effective Core Potentials
   Marius Retegan         : Local ZFS, SOC
   Christoph Riplinger    : Optimizer, TS searches, QM/MM, DLPNO-CCSD(T), (RO)-DLPNO pert. Triples
   Tobias Risthaus        : Range-separated hybrids, TD-DFT gradient, RPA, STAB
   Michael Roemelt        : Original ROCIS implementation
   Masaaki Saitow         : Open-shell DLPNO-CCSD energy and density
   Barbara Sandhoefer     : DKH picture change effects
   Avijit Sen             : IP-ROCIS
   Kantharuban Sivalingam : CASSCF convergence, NEVPT2, FIC-MRCI
   Bernardo de Souza      : ESD, SOC TD-DFT
   Georgi Stoychev        : AutoAux, RI-MP2 NMR, DLPNO-MP2 response
   Willem Van den Heuvel  : Paramagnetic NMR
   Boris Wezisla          : Elementary symmetry handling
   Frank Wennmohs         : Technical directorship


 We gratefully acknowledge several colleagues who have allowed us to
 interface, adapt or use parts of their codes:
   Stefan Grimme, W. Hujo, H. Kruse, P. Pracht,  : VdW corrections, initial TS optimization,
                  C. Bannwarth, S. Ehlert          DFT functionals, gCP, sTDA/sTD-DF
   Ed Valeev, F. Pavosevic, A. Kumar             : LibInt (2-el integral package), F12 methods
   Garnet Chan, S. Sharma, J. Yang, R. Olivares  : DMRG
   Ulf Ekstrom                                   : XCFun DFT Library
   Mihaly Kallay                                 : mrcc  (arbitrary order and MRCC methods)
   Jiri Pittner, Ondrej Demel                    : Mk-CCSD
   Frank Weinhold                                : gennbo (NPA and NBO analysis)
   Christopher J. Cramer and Donald G. Truhlar   : smd solvation model
   Lars Goerigk                                  : TD-DFT with DH, B97 family of functionals
   V. Asgeirsson, H. Jonsson                     : NEB implementation
   FAccTs GmbH                                   : IRC, NEB, NEB-TS, DLPNO-Multilevel, CI-OPT
                                                   MM, QMMM, 2- and 3-layer-ONIOM, Crystal-QMMM,
                                                   LR-CPCM, SF, NACMEs, symmetry and pop. for TD-DFT,
                                                   nearIR, NL-DFT gradient (VV10), updates on ESD,
                                                   ML-optimized integration grids
   S Lehtola, MJT Oliveira, MAL Marques          : LibXC Library
   Liviu Ungur et al                             : ANISO software


 Your calculation uses the libint2 library for the computation of 2-el integrals
 For citations please refer to: http://libint.valeyev.net

 Your ORCA version has been built with support for libXC version: 5.1.0
 For citations please refer to: https://tddft.org/programs/libxc/

 This ORCA versions uses:
   CBLAS   interface :  Fast vector & matrix operations
   LAPACKE interface :  Fast linear algebra routines
   SCALAPACK package :  Parallel linear algebra routines
   Shared memory     :  Shared parallel matrices
   BLAS/LAPACK       :  OpenBLAS 0.3.15  USE64BITINT DYNAMIC_ARCH NO_AFFINITY Zen SINGLE_THREADED
        Core in use  :  Zen
   Copyright (c) 2011-2014, The OpenBLAS Project


Your calculation utilizes the SMD solvation module
Please cite in your paper:
A.V. Marenich, C.J. Cramer, D.G. Truhlar J. Phys. Chem. B, 113, (2009), 6378 

================================================================================

cite the ECPs for Ru [Def2-ECP] as follows:
Ce-Yb(ecp-28): M. Dolg, H. Stoll, H.Preuss, J. Chem. Phys., 1989, 90, 1730-1734.
Y-Cd(ecp-28), Hf-Hg(ecp-46): D. Andrae,U. Haeussermann, M. Dolg, H. Stoll, H. Preuss, Theor. Chim. Acta, 1990, 77, 123-141.
In-Sb(ecp-28), Tl-Bi(ecp-46): B. Metz, H. Stoll, M. Dolg, J. Chem. Phys., 2000, 113, 2563-2569.
Te-Xe(ecp-28), Po-Rn(ecp-46): K. A. Peterson, D. Figgen, E. Goll, H. Stoll, M. Dolg, J. Chem. Phys., 2003, 119, 11113-11123.
Rb(ecp-28), Cs(ecp-46): T. Leininger, A. Nicklass, W. Kuechle, H. Stoll, M. Dolg, A. Bergner, Chem. Phys. Lett., 1996, 255, 274-280.
Sr(ecp-28), Ba(ecp-46): M. Kaupp, P. V. Schleyer, H. Stoll and H. Preuss, J. Chem. Phys., 1991, 94, 1360-1366.
La(ecp-46): M. Dolg, H. Stoll, A. Savin, H. Preuss, Theor. Chim. Acta, 1989, 75, 173-194.
Lu(ecp-28): X. Cao, M. Dolg, J. Chem. Phys., 2001, 115, 7348-7355.

ECP parameters for Ru [Def2-ECP] have been obtained from:
TURBOMOLE (7.0.2)

----- Orbital basis set information -----
Your calculation utilizes the basis: def2-SVP
   F. Weigend and R. Ahlrichs, Phys. Chem. Chem. Phys. 7, 3297 (2005).

----- AuxJ basis set information -----
Your calculation utilizes the auxiliary basis: def2/J
   F. Weigend, Phys. Chem. Chem. Phys. 8, 1057 (2006).

----- AuxC basis set information -----
Your calculation utilizes the auxiliary basis: def2-SVP/C
  H-La, Hf-Rn : A. Hellweg, C. Hattig, S. Hofener and W. Klopper, Theor. Chem. Acc. 117, 587 (2007).
        Ce-Lu : J. Chmela and M. E. Harding, Mol. Phys. (2018).

================================================================================
                                        WARNINGS
                       Please study these warnings very carefully!
================================================================================

INFO   : Checking CIS options ...
  ===> : (D) CORRECTION FOUND - SETTING MODE=3
  ===> : JK MODE FOUND - ACTIVATING RI-MP2 CODE
  ===> : MP2 AND CIS FOUND - CHECKING
WARNING: CIS(D) and MP2 runs must have the same orbital window
  ===> : adjusting orbital windows

WARNING: No MP2 level density has been requested!
         To caclulate MP2 level properties use
         %mp2 Density relaxed end
         or
         %mp2 Density unrelaxed end
         Otherwise for double-hybrid DFT only the energy is correct!

WARNING: The frozen-core approximation is turned on by default for 
         the MP2 part of double-hybrid DFT.

WARNING: CIS/ROCIS methods need fully converged wavefunctions
  ===> : Setting SCFConvForced true
         You can overwrite this default with %scf ConvForced false 


INFO   : the flag for use of the SHARK integral package has been found!

================================================================================
                                       INPUT FILE
================================================================================
NAME = Ru-PRC_2_B2GPPLYP_def2SVP.inp
|  1> %maxcore 6000
|  2> %pal
|  3>  nprocs 8
|  4> end
|  5> ! RI-B2GP-PLYP def2-SVP def2/J def2-SVP/C RIJCOSX CPCM TIGHTSCF
|  6> 
|  7> %TDDFT 
|  8>     DCORR      4
|  9>     NROOTS    40
| 10>     TDA       FALSE
| 11> END
| 12> 
| 13> %CPCM
| 14>     SMD		TRUE
| 15>     SMDsolvent	"DMF"
| 16> END
| 17> 
| 18> * xyz 2 1
| 19> C                  -1.67762600   -2.06917600    0.26663300
| 20> C                  -2.41976900   -0.35506600   -1.10525600
| 21> C                  -3.64054900   -1.01297700   -1.38146000
| 22> C                  -3.83977500   -2.26012400   -0.78603600
| 23> C                  -2.86017500   -2.81414300    0.05348900
| 24> C                  -0.64603500   -2.57041500    1.10931800
| 25> C                   1.44308500   -2.22864100    2.05449600
| 26> C                   1.37107100   -3.45610900    2.72594600
| 27> C                   0.25377000   -4.25800100    2.57879900
| 28> C                  -0.79899200   -3.82255400    1.74914100
| 29> H                  -2.20348800    0.61917600   -1.54629500
| 30> H                  -4.75670000   -2.82685600   -0.95693900
| 31> H                   2.31664400   -1.58092100    2.16092700
| 32> H                   2.20519900   -3.76067100    3.35881600
| 33> H                   0.17640700   -5.21804400    3.09326600
| 34> C                  -0.67339700    2.70837900   -0.05312000
| 35> C                   0.28364100    2.10199200   -2.07678600
| 36> C                  -0.06962300    3.33263900   -2.64593400
| 37> C                  -0.74150200    4.27374300   -1.88863600
| 38> C                  -1.06092100    3.97552600   -0.54795300
| 39> C                  -0.98229700    2.33684100    1.28747800
| 40> C                  -0.86513200    0.71554500    2.94084800
| 41> C                  -1.52816500    1.55169900    3.84900700
| 42> C                  -1.93001300    2.81414400    3.45518900
| 43> C                  -1.66090300    3.24064700    2.13824800
| 44> H                   0.81430900    1.34564600   -2.66004600
| 45> H                   0.19565500    3.52842800   -3.68531800
| 46> H                  -1.02608800    5.23987000   -2.31036100
| 47> H                  -0.54138600   -0.28590700    3.23440100
| 48> H                  -1.72009400    1.18704000    4.85864000
| 49> H                  -2.45085000    3.48178900    4.14451300
| 50> C                   3.23412000    0.19880600   -0.22862400
| 51> C                   2.68339500    1.39646100    1.67891500
| 52> C                   4.02351900    1.75439600    1.87621500
| 53> C                   4.99043500    1.31827600    0.98984900
| 54> C                   4.60716500    0.51520700   -0.10406100
| 55> C                   2.77992400   -0.61361700   -1.30748600
| 56> C                   0.98382300   -1.63523300   -2.36009000
| 57> C                   1.82485800   -2.15757100   -3.35148700
| 58> C                   3.18147600   -1.89533500   -3.31194000
| 59> C                   3.69765300   -1.10225100   -2.26646500
| 60> H                   1.90544100    1.73094300    2.36951600
| 61> H                   6.04067700    1.58549700    1.12343700
| 62> H                  -0.09133400   -1.82982300   -2.37615000
| 63> H                   3.85546200   -2.29168000   -4.07407900
| 64> N                   2.29071800    0.63576100    0.65528400
| 65> N                   0.46103900   -1.78766600    1.26545600
| 66> N                  -0.59313200    1.09239100    1.69009600
| 67> N                  -1.47103100   -0.85747600   -0.31699100
| 68> N                  -0.01102000    1.78870800   -0.81332900
| 69> N                   1.44226000   -0.87808700   -1.36144800
| 70> Ru                  0.36080900   -0.00017200    0.18929900
| 71> C                   5.51802000    0.00759000   -1.08472300
| 72> C                   5.08178500   -0.76686700   -2.12215900
| 73> C                  -2.00317200   -4.56431000    1.51982500
| 74> C                  -2.99008000   -4.08297000    0.70778800
| 75> C                  -2.03492300    4.52072000    1.61867400
| 76> C                  -1.75019700    4.87194600    0.32958100
| 77> H                   5.78528600   -1.14774300   -2.86536700
| 78> H                   6.57648500    0.25619200   -0.98346900
| 79> H                  -3.90321000   -4.65855900    0.54243700
| 80> H                  -2.11475400   -5.53118100    2.01503300
| 81> H                  -2.04404200    5.84954600   -0.05820200
| 82> H                  -2.55962000    5.21304700    2.28029100
| 83> H                   4.28251500    2.37741300    2.73292400
| 84> H                   1.39050900   -2.76799900   -4.14390000
| 85> C                  -4.63221300   -0.36219000   -2.26657700
| 86> C                  -5.80902100   -0.94423200   -2.56200300
| 87> H                  -6.10834500   -1.92100400   -2.17663300
| 88> H                  -6.52586300   -0.44316400   -3.21675100
| 89> C                  -4.28434800    0.98137800   -2.82737800
| 90> H                  -4.09873700    1.72172300   -2.03314000
| 91> H                  -3.36834600    0.94781100   -3.43802900
| 92> H                  -5.09264700    1.36665600   -3.45976600
| 93> *
| 94> 
| 95>                          ****END OF INPUT****
================================================================================

                       ****************************
                       * Single Point Calculation *
                       ****************************

---------------------------------
CARTESIAN COORDINATES (ANGSTROEM)
---------------------------------
  C     -1.677626   -2.069176    0.266633
  C     -2.419769   -0.355066   -1.105256
  C     -3.640549   -1.012977   -1.381460
  C     -3.839775   -2.260124   -0.786036
  C     -2.860175   -2.814143    0.053489
  C     -0.646035   -2.570415    1.109318
  C      1.443085   -2.228641    2.054496
  C      1.371071   -3.456109    2.725946
  C      0.253770   -4.258001    2.578799
  C     -0.798992   -3.822554    1.749141
  H     -2.203488    0.619176   -1.546295
  H     -4.756700   -2.826856   -0.956939
  H      2.316644   -1.580921    2.160927
  H      2.205199   -3.760671    3.358816
  H      0.176407   -5.218044    3.093266
  C     -0.673397    2.708379   -0.053120
  C      0.283641    2.101992   -2.076786
  C     -0.069623    3.332639   -2.645934
  C     -0.741502    4.273743   -1.888636
  C     -1.060921    3.975526   -0.547953
  C     -0.982297    2.336841    1.287478
  C     -0.865132    0.715545    2.940848
  C     -1.528165    1.551699    3.849007
  C     -1.930013    2.814144    3.455189
  C     -1.660903    3.240647    2.138248
  H      0.814309    1.345646   -2.660046
  H      0.195655    3.528428   -3.685318
  H     -1.026088    5.239870   -2.310361
  H     -0.541386   -0.285907    3.234401
  H     -1.720094    1.187040    4.858640
  H     -2.450850    3.481789    4.144513
  C      3.234120    0.198806   -0.228624
  C      2.683395    1.396461    1.678915
  C      4.023519    1.754396    1.876215
  C      4.990435    1.318276    0.989849
  C      4.607165    0.515207   -0.104061
  C      2.779924   -0.613617   -1.307486
  C      0.983823   -1.635233   -2.360090
  C      1.824858   -2.157571   -3.351487
  C      3.181476   -1.895335   -3.311940
  C      3.697653   -1.102251   -2.266465
  H      1.905441    1.730943    2.369516
  H      6.040677    1.585497    1.123437
  H     -0.091334   -1.829823   -2.376150
  H      3.855462   -2.291680   -4.074079
  N      2.290718    0.635761    0.655284
  N      0.461039   -1.787666    1.265456
  N     -0.593132    1.092391    1.690096
  N     -1.471031   -0.857476   -0.316991
  N     -0.011020    1.788708   -0.813329
  N      1.442260   -0.878087   -1.361448
  Ru     0.360809   -0.000172    0.189299
  C      5.518020    0.007590   -1.084723
  C      5.081785   -0.766867   -2.122159
  C     -2.003172   -4.564310    1.519825
  C     -2.990080   -4.082970    0.707788
  C     -2.034923    4.520720    1.618674
  C     -1.750197    4.871946    0.329581
  H      5.785286   -1.147743   -2.865367
  H      6.576485    0.256192   -0.983469
  H     -3.903210   -4.658559    0.542437
  H     -2.114754   -5.531181    2.015033
  H     -2.044042    5.849546   -0.058202
  H     -2.559620    5.213047    2.280291
  H      4.282515    2.377413    2.732924
  H      1.390509   -2.767999   -4.143900
  C     -4.632213   -0.362190   -2.266577
  C     -5.809021   -0.944232   -2.562003
  H     -6.108345   -1.921004   -2.176633
  H     -6.525863   -0.443164   -3.216751
  C     -4.284348    0.981378   -2.827378
  H     -4.098737    1.721723   -2.033140
  H     -3.368346    0.947811   -3.438029
  H     -5.092647    1.366656   -3.459766

----------------------------
CARTESIAN COORDINATES (A.U.)
----------------------------
  NO LB      ZA    FRAG     MASS         X           Y           Z
   0 C     6.0000    0    12.011   -3.170254   -3.910176    0.503863
   1 C     6.0000    0    12.011   -4.572701   -0.670977   -2.088631
   2 C     6.0000    0    12.011   -6.879641   -1.914249   -2.610581
   3 C     6.0000    0    12.011   -7.256123   -4.271015   -1.485393
   4 C     6.0000    0    12.011   -5.404947   -5.317960    0.101080
   5 C     6.0000    0    12.011   -1.220829   -4.857380    2.096307
   6 C     6.0000    0    12.011    2.727035   -4.211521    3.882435
   7 C     6.0000    0    12.011    2.590949   -6.531099    5.151291
   8 C     6.0000    0    12.011    0.479556   -8.046456    4.873224
   9 C     6.0000    0    12.011   -1.509876   -7.223580    3.305397
  10 H     1.0000    0     1.008   -4.163989    1.170073   -2.922074
  11 H     1.0000    0     1.008   -8.988860   -5.341984   -1.808353
  12 H     1.0000    0     1.008    4.377823   -2.987508    4.083560
  13 H     1.0000    0     1.008    4.167222   -7.106638    6.347242
  14 H     1.0000    0     1.008    0.333361   -9.860674    5.845426
  15 C     6.0000    0    12.011   -1.272536    5.118095   -0.100382
  16 C     6.0000    0    12.011    0.536004    3.972189   -3.924557
  17 C     6.0000    0    12.011   -0.131568    6.297775   -5.000091
  18 C     6.0000    0    12.011   -1.401236    8.076204   -3.569005
  19 C     6.0000    0    12.011   -2.004850    7.512655   -1.035481
  20 C     6.0000    0    12.011   -1.856272    4.415990    2.432981
  21 C     6.0000    0    12.011   -1.634863    1.352184    5.557397
  22 C     6.0000    0    12.011   -2.887813    2.932286    7.273569
  23 C     6.0000    0    12.011   -3.647196    5.317961    6.529361
  24 C     6.0000    0    12.011   -3.138652    6.123935    4.040703
  25 H     1.0000    0     1.008    1.538821    2.542902   -5.026758
  26 H     1.0000    0     1.008    0.369734    6.667763   -6.964242
  27 H     1.0000    0     1.008   -1.939025    9.901919   -4.365950
  28 H     1.0000    0     1.008   -1.023071   -0.540286    6.112132
  29 H     1.0000    0     1.008   -3.250507    2.243181    9.181499
  30 H     1.0000    0     1.008   -4.631435    6.579628    7.831995
  31 C     6.0000    0    12.011    6.111601    0.375689   -0.432037
  32 C     6.0000    0    12.011    5.070882    2.638929    3.172690
  33 C     6.0000    0    12.011    7.603349    3.315328    3.545533
  34 C     6.0000    0    12.011    9.430555    2.491181    1.870544
  35 C     6.0000    0    12.011    8.706280    0.973600   -0.196647
  36 C     6.0000    0    12.011    5.253295   -1.159568   -2.470790
  37 C     6.0000    0    12.011    1.859156   -3.090143   -4.459924
  38 C     6.0000    0    12.011    3.448482   -4.077218   -6.333393
  39 C     6.0000    0    12.011    6.012118   -3.581664   -6.258660
  40 C     6.0000    0    12.011    6.987552   -2.082953   -4.282998
  41 H     1.0000    0     1.008    3.600762    3.271008    4.477736
  42 H     1.0000    0     1.008   11.415225    2.996155    2.122988
  43 H     1.0000    0     1.008   -0.172596   -3.457864   -4.490273
  44 H     1.0000    0     1.008    7.285767   -4.330648   -7.698894
  45 N     7.0000    0    14.007    4.328830    1.201414    1.238307
  46 N     7.0000    0    14.007    0.871237   -3.378199    2.391365
  47 N     7.0000    0    14.007   -1.120857    2.064320    3.193819
  48 N     7.0000    0    14.007   -2.779846   -1.620395   -0.599026
  49 N     7.0000    0    14.007   -0.020825    3.380168   -1.536969
  50 N     7.0000    0    14.007    2.725476   -1.659344   -2.572764
  51 Ru   16.0000*   0   101.070    0.681830   -0.000325    0.357723
  52 C     6.0000    0    12.011   10.427547    0.014343   -2.049829
  53 C     6.0000    0    12.011    9.603182   -1.449169   -4.010299
  54 C     6.0000    0    12.011   -3.785446   -8.625296    2.872053
  55 C     6.0000    0    12.011   -5.650432   -7.715695    1.337525
  56 C     6.0000    0    12.011   -3.845447    8.542923    3.058851
  57 C     6.0000    0    12.011   -3.307393    9.206644    0.622818
  58 H     1.0000    0     1.008   10.932606   -2.168920   -5.414759
  59 H     1.0000    0     1.008   12.427756    0.484133   -1.858487
  60 H     1.0000    0     1.008   -7.375998   -8.803401    1.025057
  61 H     1.0000    0     1.008   -3.996306  -10.452417    3.807861
  62 H     1.0000    0     1.008   -3.862680   11.054040   -0.109986
  63 H     1.0000    0     1.008   -4.836981    9.851231    4.309125
  64 H     1.0000    0     1.008    8.092781    4.492659    5.164478
  65 H     1.0000    0     1.008    2.627681   -5.230760   -7.830836
  66 C     6.0000    0    12.011   -8.753614   -0.684440   -4.283210
  67 C     6.0000    0    12.011  -10.977459   -1.784340   -4.841484
  68 H     1.0000    0     1.008  -11.543099   -3.630171   -4.113240
  69 H     1.0000    0     1.008  -12.332094   -0.837459   -6.078778
  70 C     6.0000    0    12.011   -8.096244    1.854536   -5.342970
  71 H     1.0000    0     1.008   -7.745490    3.253585   -3.842078
  72 H     1.0000    0     1.008   -6.365251    1.791103   -6.496933
  73 H     1.0000    0     1.008   -9.623708    2.582606   -6.538010
* core charge reduced due to ECP

--------------------------------
INTERNAL COORDINATES (ANGSTROEM)
--------------------------------
 C      0   0   0     0.000000000000     0.00000000     0.00000000
 C      1   0   0     2.317548004437     0.00000000     0.00000000
 C      2   1   0     1.414015325920    92.74923135     0.00000000
 C      3   2   1     1.396279477204   117.09525529   359.68700230
 C      4   3   2     1.404049656524   120.52216088     0.37070214
 C      1   2   3     1.423214156628   147.46841042   180.42545254
 C      6   1   2     2.318316909562   147.42111914     0.22254936
 C      7   6   1     1.400967098015    91.14104304   179.29531090
 C      8   7   6     1.383128534835   119.90094751     0.00000000
 C      9   8   7     1.409345349947   119.13821751     0.04560973
 H      2   1   3     1.091073024617   146.74413636   180.11454438
 H      4   3   2     1.091395643595   121.12511811   180.20541753
 H      7   6   1     1.092691211021   147.94286947   359.56987729
 H      8   7   6     1.090436595648   118.91790085   180.00377034
 H      9   8   7     1.091945003060   121.12064140   180.03926934
 C     11   2   1     2.989233885817   121.57535374   324.54139976
 C     16  11   2     2.319235004645    65.96018789   122.17786492
 C     17  16  11     1.401148435466    91.18899035   108.54203246
 C     18  17  16     1.382243969153   119.86817180     0.14656506
 C     19  18  17     1.410103819986   119.14489980     0.00000000
 C     16  11   2     1.425013225570   100.18027309   333.22062438
 C     21  16  11     2.318611807470   147.37356457    61.21816906
 C     22  21  16     1.401256236413    91.20254301   179.56550587
 C     23  22  21     1.382151153186   119.86391739     0.20180824
 C     24  23  22     1.410198070694   119.13400795   359.88005914
 H     17  16  11     1.092639018862   147.90642084   288.84450987
 H     18  17  16     1.090424160252   118.91782950   180.04970834
 H     19  18  17     1.091898597467   121.16534808   179.93582890
 H     22  21  16     1.092653167583   147.93415818   359.76816512
 H     23  22  21     1.090491504786   118.93289632   179.99870390
 H     24  23  22     1.091873895452   121.15214790   179.80693376
 C     13   7   6     3.117554231558   119.93495636   327.07108084
 C     32  13   7     2.318702344237    66.07138084   120.23191323
 C     33  32  13     1.401062842845    91.18175524   111.01793635
 C     34  33  32     1.382306728412   119.87898734     0.04977530
 C     35  34  33     1.410125809905   119.14278032     0.00000000
 C     32  13   7     1.424874854992    99.26767106   330.84687821
 C     37  32  13     2.318976764539   147.32624103    59.91574273
 C     38  37  32     1.401087031229    91.17441985   179.62327924
 C     39  38  37     1.382296669615   119.87783635     0.00000000
 C     40  39  38     1.410120172897   119.15412597     0.05306379
 H     33  32  13     1.092712393835   147.90211257   291.19476451
 H     35  34  33     1.091907081738   121.14069137   179.95426840
 H     38  37  32     1.092742314706   147.90627168   359.86371029
 H     40  39  38     1.091880186899   121.12927986   180.02209112
 N     33  32  13     1.334421275494    31.17101195   291.20247980
 N      7   6   1     1.334712485272    31.20216978   359.53419286
 N     22  21  16     1.334307862984    31.17176112   359.76329543
 N      2   1   3     1.331871356764    30.96755589   180.24414953
 N     17  16  11     1.334651849894    31.15797407   288.86671057
 N     38  37  32     1.334436357587    31.15928528   359.91162590
 Ru    50  17  16     2.084133240948   128.13401245   177.90444282
 C     36  35  34     1.431443260475   124.08785856   179.93670254
 C     53  36  35     1.366147164170   121.20413643   179.97850746
 C     10   9   8     1.432772579230   124.19912520   180.01282239
 C     55  10   9     1.365679202973   121.33578621   179.68625935
 C     25  24  23     1.431235475806   124.03142118   179.67403996
 C     57  25  24     1.366085414899   121.20136101   180.31379213
 H     54  53  36     1.091942450700   120.58868667   179.92047068
 H     53  36  35     1.091972290466   118.19896844   359.94482096
 H     56  55  10     1.091993611255   120.56663442   180.04901736
 H     55  10   9     1.092026115360   118.14281070   359.77331374
 H     58  57  25     1.091980906021   120.61002049   179.72411827
 H     57  25  24     1.091952687357   118.20812751     0.10755995
 H     34  33  32     1.090495034829   118.93131910   179.98518643
 H     39  38  37     1.090504360172   118.93169566   179.96350910
 C      3   2   1     1.479984226927   119.38718594   179.50112316
 C     67   3   2     1.345706684276   121.80680993   179.99659367
 H     68  67   3     1.091873817737   123.31020211   359.92803829
 H     68  67   3     1.092532167532   120.46270813   179.89613270
 C     67   3   2     1.496891041609   117.58282303   359.82843386
 H     71  67   3     1.101533550551   111.85699268   300.77911853
 H     71  67   3     1.101399587477   111.93983888    59.91883403
 H     71  67   3     1.096221233707   111.11440123   180.38224488

---------------------------
INTERNAL COORDINATES (A.U.)
---------------------------
 C      0   0   0     0.000000000000     0.00000000     0.00000000
 C      1   0   0     4.379531030602     0.00000000     0.00000000
 C      2   1   0     2.672101715156    92.74923135     0.00000000
 C      3   2   1     2.638585818330   117.09525529   359.68700230
 C      4   3   2     2.653269329257   120.52216088     0.37070214
 C      1   2   3     2.689484985947   147.46841042   180.42545254
 C      6   1   2     4.380984050710   147.42111914     0.22254936
 C      7   6   1     2.647444137882    91.14104304   179.29531090
 C      8   7   6     2.613734138849   119.90094751     0.00000000
 C      9   8   7     2.663276739515   119.13821751     0.04560973
 H      2   1   3     2.061829208634   146.74413636   180.11454438
 H      4   3   2     2.062438870149   121.12511811   180.20541753
 H      7   6   1     2.064887137772   147.94286947   359.56987729
 H      8   7   6     2.060626532180   118.91790085   180.00377034
 H      9   8   7     2.063477009087   121.12064140   180.03926934
 C     11   2   1     5.648833394431   121.57535374   324.54139976
 C     16  11   2     4.382718998982    65.96018789   122.17786492
 C     17  16  11     2.647786816003    91.18899035   108.54203246
 C     18  17  16     2.612062551964   119.86817180     0.14656506
 C     19  18  17     2.664710040170   119.14489980     0.00000000
 C     16  11   2     2.692884733542   100.18027309   333.22062438
 C     21  16  11     4.381541326995   147.37356457    61.21816906
 C     22  21  16     2.647990530270    91.20254301   179.56550587
 C     23  22  21     2.611887155205   119.86391739     0.20180824
 C     24  23  22     2.664888148196   119.13400795   359.88005914
 H     17  16  11     2.064788508886   147.90642084   288.84450987
 H     18  17  16     2.060603032687   118.91782950   180.04970834
 H     19  18  17     2.063389315225   121.16534808   179.93582890
 H     22  21  16     2.064815246093   147.93415818   359.76816512
 H     23  22  21     2.060730295414   118.93289632   179.99870390
 H     24  23  22     2.063342635182   121.15214790   179.80693376
 C     13   7   6     5.891323705292   119.93495636   327.07108084
 C     32  13   7     4.381712416689    66.07138084   120.23191323
 C     33  32  13     2.647625069390    91.18175524   111.01793635
 C     34  33  32     2.612181149775   119.87898734     0.04977530
 C     35  34  33     2.664751595095   119.14278032     0.00000000
 C     32  13   7     2.692623251046    99.26767106   330.84687821
 C     37  32  13     4.382230995906   147.32624103    59.91574273
 C     38  37  32     2.647670778812    91.17441985   179.62327924
 C     39  38  37     2.612162141404   119.87783635     0.00000000
 C     40  39  38     2.664740942692   119.15412597     0.05306379
 H     33  32  13     2.064927167490   147.90211257   291.19476451
 H     35  34  33     2.063405348173   121.14069137   179.95426840
 H     38  37  32     2.064983709742   147.90627168   359.86371029
 H     40  39  38     2.063354524293   121.12927986   180.02209112
 N     33  32  13     2.521690757961    31.17101195   291.20247980
 N      7   6   1     2.522241064690    31.20216978   359.53419286
 N     22  21  16     2.521476439377    31.17176112   359.76329543
 N      2   1   3     2.516872109899    30.96755589   180.24414953
 N     17  16  11     2.522126480431    31.15797407   288.86671057
 N     38  37  32     2.521719258986    31.15928528   359.91162590
 Ru    50  17  16     3.938441051994   128.13401245   177.90444282
 C     36  35  34     2.705035738544   124.08785856   179.93670254
 C     53  36  35     2.581643998915   121.20413643   179.97850746
 C     10   9   8     2.707547786936   124.19912520   180.01282239
 C     55  10   9     2.580759680411   121.33578621   179.68625935
 C     25  24  23     2.704643082425   124.03142118   179.67403996
 C     57  25  24     2.581527309704   121.20136101   180.31379213
 H     54  53  36     2.063472185826   120.58868667   179.92047068
 H     53  36  35     2.063528574811   118.19896844   359.94482096
 H     56  55  10     2.063568865264   120.56663442   180.04901736
 H     55  10   9     2.063630289121   118.14281070   359.77331374
 H     58  57  25     2.063544855851   120.61002049   179.72411827
 H     57  25  24     2.063491530305   118.20812751     0.10755995
 H     34  33  32     2.060736966227   118.93131910   179.98518643
 H     39  38  37     2.060754588572   118.93169566   179.96350910
 C      3   2   1     2.796764871416   119.38718594   179.50112316
 C     67   3   2     2.543017089868   121.80680993   179.99659367
 H     68  67   3     2.063342488322   123.31020211   359.92803829
 H     68  67   3     2.064586589135   120.46270813   179.89613270
 C     67   3   2     2.828714120962   117.58282303   359.82843386
 H     71  67   3     2.081596737868   111.85699268   300.77911853
 H     71  67   3     2.081343584345   111.93983888    59.91883403
 H     71  67   3     2.071557913895   111.11440123   180.38224488

---------------------
BASIS SET INFORMATION
---------------------
There are 4 groups of distinct atoms

 Group   1 Type C   : 7s4p1d contracted to 3s2p1d pattern {511/31/1}
 Group   2 Type H   : 4s1p contracted to 2s1p pattern {31/1}
 Group   3 Type N   : 7s4p1d contracted to 3s2p1d pattern {511/31/1}
 Group   4 Type Ru  : 7s6p5d1f contracted to 5s3p2d1f pattern {31111/411/41/1}

Atom   0C    basis set group =>   1
Atom   1C    basis set group =>   1
Atom   2C    basis set group =>   1
Atom   3C    basis set group =>   1
Atom   4C    basis set group =>   1
Atom   5C    basis set group =>   1
Atom   6C    basis set group =>   1
Atom   7C    basis set group =>   1
Atom   8C    basis set group =>   1
Atom   9C    basis set group =>   1
Atom  10H    basis set group =>   2
Atom  11H    basis set group =>   2
Atom  12H    basis set group =>   2
Atom  13H    basis set group =>   2
Atom  14H    basis set group =>   2
Atom  15C    basis set group =>   1
Atom  16C    basis set group =>   1
Atom  17C    basis set group =>   1
Atom  18C    basis set group =>   1
Atom  19C    basis set group =>   1
Atom  20C    basis set group =>   1
Atom  21C    basis set group =>   1
Atom  22C    basis set group =>   1
Atom  23C    basis set group =>   1
Atom  24C    basis set group =>   1
Atom  25H    basis set group =>   2
Atom  26H    basis set group =>   2
Atom  27H    basis set group =>   2
Atom  28H    basis set group =>   2
Atom  29H    basis set group =>   2
Atom  30H    basis set group =>   2
Atom  31C    basis set group =>   1
Atom  32C    basis set group =>   1
Atom  33C    basis set group =>   1
Atom  34C    basis set group =>   1
Atom  35C    basis set group =>   1
Atom  36C    basis set group =>   1
Atom  37C    basis set group =>   1
Atom  38C    basis set group =>   1
Atom  39C    basis set group =>   1
Atom  40C    basis set group =>   1
Atom  41H    basis set group =>   2
Atom  42H    basis set group =>   2
Atom  43H    basis set group =>   2
Atom  44H    basis set group =>   2
Atom  45N    basis set group =>   3
Atom  46N    basis set group =>   3
Atom  47N    basis set group =>   3
Atom  48N    basis set group =>   3
Atom  49N    basis set group =>   3
Atom  50N    basis set group =>   3
Atom  51Ru   basis set group =>   4
Atom  52C    basis set group =>   1
Atom  53C    basis set group =>   1
Atom  54C    basis set group =>   1
Atom  55C    basis set group =>   1
Atom  56C    basis set group =>   1
Atom  57C    basis set group =>   1
Atom  58H    basis set group =>   2
Atom  59H    basis set group =>   2
Atom  60H    basis set group =>   2
Atom  61H    basis set group =>   2
Atom  62H    basis set group =>   2
Atom  63H    basis set group =>   2
Atom  64H    basis set group =>   2
Atom  65H    basis set group =>   2
Atom  66C    basis set group =>   1
Atom  67C    basis set group =>   1
Atom  68H    basis set group =>   2
Atom  69H    basis set group =>   2
Atom  70C    basis set group =>   1
Atom  71H    basis set group =>   2
Atom  72H    basis set group =>   2
Atom  73H    basis set group =>   2
---------------------------------
AUXILIARY/J BASIS SET INFORMATION
---------------------------------
There are 4 groups of distinct atoms

 Group   1 Type C   : 12s5p4d2f1g contracted to 6s4p3d1f1g pattern {711111/2111/211/2/1}
 Group   2 Type H   : 5s2p1d contracted to 3s1p1d pattern {311/2/1}
 Group   3 Type N   : 12s5p4d2f1g contracted to 6s4p3d1f1g pattern {711111/2111/211/2/1}
 Group   4 Type Ru  : 11s5p5d3f3g contracted to 8s5p5d2f3g pattern {41111111/11111/11111/21/111}

Atom   0C    basis set group =>   1
Atom   1C    basis set group =>   1
Atom   2C    basis set group =>   1
Atom   3C    basis set group =>   1
Atom   4C    basis set group =>   1
Atom   5C    basis set group =>   1
Atom   6C    basis set group =>   1
Atom   7C    basis set group =>   1
Atom   8C    basis set group =>   1
Atom   9C    basis set group =>   1
Atom  10H    basis set group =>   2
Atom  11H    basis set group =>   2
Atom  12H    basis set group =>   2
Atom  13H    basis set group =>   2
Atom  14H    basis set group =>   2
Atom  15C    basis set group =>   1
Atom  16C    basis set group =>   1
Atom  17C    basis set group =>   1
Atom  18C    basis set group =>   1
Atom  19C    basis set group =>   1
Atom  20C    basis set group =>   1
Atom  21C    basis set group =>   1
Atom  22C    basis set group =>   1
Atom  23C    basis set group =>   1
Atom  24C    basis set group =>   1
Atom  25H    basis set group =>   2
Atom  26H    basis set group =>   2
Atom  27H    basis set group =>   2
Atom  28H    basis set group =>   2
Atom  29H    basis set group =>   2
Atom  30H    basis set group =>   2
Atom  31C    basis set group =>   1
Atom  32C    basis set group =>   1
Atom  33C    basis set group =>   1
Atom  34C    basis set group =>   1
Atom  35C    basis set group =>   1
Atom  36C    basis set group =>   1
Atom  37C    basis set group =>   1
Atom  38C    basis set group =>   1
Atom  39C    basis set group =>   1
Atom  40C    basis set group =>   1
Atom  41H    basis set group =>   2
Atom  42H    basis set group =>   2
Atom  43H    basis set group =>   2
Atom  44H    basis set group =>   2
Atom  45N    basis set group =>   3
Atom  46N    basis set group =>   3
Atom  47N    basis set group =>   3
Atom  48N    basis set group =>   3
Atom  49N    basis set group =>   3
Atom  50N    basis set group =>   3
Atom  51Ru   basis set group =>   4
Atom  52C    basis set group =>   1
Atom  53C    basis set group =>   1
Atom  54C    basis set group =>   1
Atom  55C    basis set group =>   1
Atom  56C    basis set group =>   1
Atom  57C    basis set group =>   1
Atom  58H    basis set group =>   2
Atom  59H    basis set group =>   2
Atom  60H    basis set group =>   2
Atom  61H    basis set group =>   2
Atom  62H    basis set group =>   2
Atom  63H    basis set group =>   2
Atom  64H    basis set group =>   2
Atom  65H    basis set group =>   2
Atom  66C    basis set group =>   1
Atom  67C    basis set group =>   1
Atom  68H    basis set group =>   2
Atom  69H    basis set group =>   2
Atom  70C    basis set group =>   1
Atom  71H    basis set group =>   2
Atom  72H    basis set group =>   2
Atom  73H    basis set group =>   2
---------------------------------
AUXILIARY/C BASIS SET INFORMATION
---------------------------------
There are 4 groups of distinct atoms

 Group   1 Type C   : 8s6p5d3f contracted to 6s5p4d1f pattern {311111/21111/2111/3}
 Group   2 Type H   : 4s3p2d contracted to 3s2p1d pattern {211/21/2}
 Group   3 Type N   : 8s6p5d3f contracted to 6s5p4d1f pattern {311111/21111/2111/3}
 Group   4 Type Ru  : 8s7p6d5f3g1h contracted to 8s7p6d5f3g1h pattern {11111111/1111111/111111/11111/111/1}

Atom   0C    basis set group =>   1
Atom   1C    basis set group =>   1
Atom   2C    basis set group =>   1
Atom   3C    basis set group =>   1
Atom   4C    basis set group =>   1
Atom   5C    basis set group =>   1
Atom   6C    basis set group =>   1
Atom   7C    basis set group =>   1
Atom   8C    basis set group =>   1
Atom   9C    basis set group =>   1
Atom  10H    basis set group =>   2
Atom  11H    basis set group =>   2
Atom  12H    basis set group =>   2
Atom  13H    basis set group =>   2
Atom  14H    basis set group =>   2
Atom  15C    basis set group =>   1
Atom  16C    basis set group =>   1
Atom  17C    basis set group =>   1
Atom  18C    basis set group =>   1
Atom  19C    basis set group =>   1
Atom  20C    basis set group =>   1
Atom  21C    basis set group =>   1
Atom  22C    basis set group =>   1
Atom  23C    basis set group =>   1
Atom  24C    basis set group =>   1
Atom  25H    basis set group =>   2
Atom  26H    basis set group =>   2
Atom  27H    basis set group =>   2
Atom  28H    basis set group =>   2
Atom  29H    basis set group =>   2
Atom  30H    basis set group =>   2
Atom  31C    basis set group =>   1
Atom  32C    basis set group =>   1
Atom  33C    basis set group =>   1
Atom  34C    basis set group =>   1
Atom  35C    basis set group =>   1
Atom  36C    basis set group =>   1
Atom  37C    basis set group =>   1
Atom  38C    basis set group =>   1
Atom  39C    basis set group =>   1
Atom  40C    basis set group =>   1
Atom  41H    basis set group =>   2
Atom  42H    basis set group =>   2
Atom  43H    basis set group =>   2
Atom  44H    basis set group =>   2
Atom  45N    basis set group =>   3
Atom  46N    basis set group =>   3
Atom  47N    basis set group =>   3
Atom  48N    basis set group =>   3
Atom  49N    basis set group =>   3
Atom  50N    basis set group =>   3
Atom  51Ru   basis set group =>   4
Atom  52C    basis set group =>   1
Atom  53C    basis set group =>   1
Atom  54C    basis set group =>   1
Atom  55C    basis set group =>   1
Atom  56C    basis set group =>   1
Atom  57C    basis set group =>   1
Atom  58H    basis set group =>   2
Atom  59H    basis set group =>   2
Atom  60H    basis set group =>   2
Atom  61H    basis set group =>   2
Atom  62H    basis set group =>   2
Atom  63H    basis set group =>   2
Atom  64H    basis set group =>   2
Atom  65H    basis set group =>   2
Atom  66C    basis set group =>   1
Atom  67C    basis set group =>   1
Atom  68H    basis set group =>   2
Atom  69H    basis set group =>   2
Atom  70C    basis set group =>   1
Atom  71H    basis set group =>   2
Atom  72H    basis set group =>   2
Atom  73H    basis set group =>   2
-------------------------
ECP PARAMETER INFORMATION
-------------------------

 Group 1, Type Ru ECP Def2-ECP (replacing 28 core electrons, lmax=3)

Atom  51Ru   ECP group =>   1



           ************************************************************
           *        Program running with 8 parallel MPI-processes     *
           *              working on a common directory               *
           ************************************************************
------------------------------------------------------------------------------
                           ORCA GTO INTEGRAL CALCULATION
                           -- RI-GTO INTEGRALS CHOSEN --
------------------------------------------------------------------------------
------------------------------------------------------------------------------
                   ___                                                        
                  /   \      - P O W E R E D   B Y -                         
                 /     \                                                     
                 |  |  |   _    _      __       _____    __    __             
                 |  |  |  | |  | |    /  \     |  _  \  |  |  /  |          
                  \  \/   | |  | |   /    \    | | | |  |  | /  /          
                 / \  \   | |__| |  /  /\  \   | |_| |  |  |/  /          
                |  |  |   |  __  | /  /__\  \  |    /   |      \           
                |  |  |   | |  | | |   __   |  |    \   |  |\   \          
                \     /   | |  | | |  |  |  |  | |\  \  |  | \   \       
                 \___/    |_|  |_| |__|  |__|  |_| \__\ |__|  \__/        
                                                                              
                      - O R C A' S   B I G   F R I E N D -                    
                                      &                                       
                       - I N T E G R A L  F E E D E R -                       
                                                                              
 v1 FN, 2020, v2 2021                                                         
------------------------------------------------------------------------------


Reading SHARK input file Ru-PRC_2_B2GPPLYP_def2SVP.SHARKINP.tmp ... ok
----------------------
SHARK INTEGRAL PACKAGE
----------------------

Number of atoms                             ...     74
Number of basis functions                   ...    801
Number of shells                            ...    365
Maximum angular momentum                    ...      3
Integral batch strategy                     ... SHARK/LIBINT Hybrid
RI-J (if used) integral strategy            ... SPLIT-RIJ (Revised 2003 algorithm where possible)
Printlevel                                  ...      1
Contraction scheme used                     ... SEGMENTED contraction
Coulomb Range Separation                    ... NOT USED
Exchange Range Separation                   ... NOT USED
Finite Nucleus Model                        ... NOT USED
Auxiliary Coulomb fitting basis             ... AVAILABLE
   # of basis functions in Aux-J            ...   2602
   # of shells in Aux-J                     ...    838
   Maximum angular momentum in Aux-J        ...      4
Auxiliary J/K fitting basis                 ... NOT available
Auxiliary Correlation fitting basis         ... AVAILABLE
   # of basis functions in Aux-C            ...   2684
   # of shells in Aux-C                     ...    918
   Maximum angular momentum in Aux-C        ...      5
Auxiliary 'external' fitting basis          ... NOT available
Integral threshold                          ...     2.500000e-11
Primitive cut-off                           ...     2.500000e-12
Primitive pair pre-selection threshold      ...     2.500000e-12

Calculating pre-screening integrals         ... done (  0.1 sec) Dimension = 365
Organizing shell pair data                  ... done (  0.2 sec)
Shell pair information
Total number of shell pairs                 ...     66795
Shell pairs after pre-screening             ...     42372
Total number of primitive shell pairs       ...    245334
Primitive shell pairs kept                  ...     91097
          la=0 lb=0:  12482 shell pairs
          la=1 lb=0:  15707 shell pairs
          la=1 lb=1:   5016 shell pairs
          la=2 lb=0:   5104 shell pairs
          la=2 lb=1:   3334 shell pairs
          la=2 lb=2:    457 shell pairs
          la=3 lb=0:    149 shell pairs
          la=3 lb=1:     90 shell pairs
          la=3 lb=2:     32 shell pairs
          la=3 lb=3:      1 shell pairs

Calculating one electron integrals          ... done (  0.1 sec)
Calculating ECP integrals                   ... done (  1.0 sec)
Calculating RI/J V-Matrix + Cholesky decomp.... done (  0.3 sec)
Calculating RI/C V-Matrix + Cholesky decomp.... done (  0.3 sec)
Calculating Nuclear repulsion               ... done (  0.0 sec) ENN=   6024.905487618291 Eh

SHARK setup successfully completed in   2.2 seconds

Maximum memory used throughout the entire GTOINT-calculation: 75.1 MB


           ************************************************************
           *        Program running with 8 parallel MPI-processes     *
           *              working on a common directory               *
           ************************************************************
-------------------------------------------------------------------------------
                                 ORCA SCF
-------------------------------------------------------------------------------

------------
SCF SETTINGS
------------
Hamiltonian:
 Density Functional     Method          .... DFT(GTOs)
 Exchange Functional    Exchange        .... B88
   X-Alpha parameter    XAlpha          ....  0.666667
   Becke's b parameter  XBeta           ....  0.004200
 Correlation Functional Correlation     .... LYP
 LDA part of GGA corr.  LDAOpt          .... VWN-3
 Gradients option       PostSCFGGA      .... off
 Hybrid DFT is turned on
   Fraction HF Exchange ScalHFX         ....  0.650000
   Scaling of DF-GGA-X  ScalDFX         ....  0.350000
   Scaling of DF-GGA-C  ScalDFC         ....  0.640000
   Scaling of DF-LDA-C  ScalLDAC        ....  0.640000
   Perturbative correction              ....  0.360000
   Density functional embedding theory  .... OFF
 RI-approximation to the Coulomb term is turned on
   Number of AuxJ basis functions       .... 2602
   RIJ-COSX (HFX calculated with COS-X)).... on


General Settings:
 Integral files         IntName         .... Ru-PRC_2_B2GPPLYP_def2SVP
 Hartree-Fock type      HFTyp           .... RHF
 Total Charge           Charge          ....    2
 Multiplicity           Mult            ....    1
 Number of Electrons    NEL             ....  318
 Basis Dimension        Dim             ....  801
 Nuclear Repulsion      ENuc            ....   6024.9054876183 Eh

Convergence Acceleration:
 DIIS                   CNVDIIS         .... on
   Start iteration      DIISMaxIt       ....    12
   Startup error        DIISStart       ....  0.200000
   # of expansion vecs  DIISMaxEq       ....     5
   Bias factor          DIISBfac        ....   1.050
   Max. coefficient     DIISMaxC        ....  10.000
 Trust-Rad. Augm. Hess. CNVTRAH         .... auto
   Auto Start mean grad. ratio tolernc. ....  1.125000
   Auto Start start iteration           ....    20
   Auto Start num. interpolation iter.  ....    10
   Max. Number of Micro iterations      ....    16
   Max. Number of Macro iterations      .... Maxiter - #DIIS iter
   Number of Davidson start vectors     ....     2
   Converg. threshold I  (grad. norm)   ....   1.000e-05
   Converg. threshold II (energy diff.) ....   1.000e-08
   Grad. Scal. Fac. for Micro threshold ....   0.100
   Minimum threshold for Micro iter.    ....   0.010
   NR start threshold (gradient norm)   ....   0.001
   Initial trust radius                 ....   0.400
   Minimum AH scaling param. (alpha)    ....   1.000
   Maximum AH scaling param. (alpha)    .... 1000.000
   Orbital update algorithm             .... Taylor
   White noise on init. David. guess    .... on
   Maximum white noise                  ....   0.010
   Quad. conv. algorithm                .... NR
 SOSCF                  CNVSOSCF        .... off
 Level Shifting         CNVShift        .... on
   Level shift para.    LevelShift      ....    0.2500
   Turn off err/grad.   ShiftErr        ....    0.0010
 Zerner damping         CNVZerner       .... off
 Static damping         CNVDamp         .... on
   Fraction old density DampFac         ....    0.7000
   Max. Damping (<1)    DampMax         ....    0.9800
   Min. Damping (>=0)   DampMin         ....    0.0000
   Turn off err/grad.   DampErr         ....    0.1000
 Fernandez-Rico         CNVRico         .... off

SCF Procedure:
 Maximum # iterations   MaxIter         ....   125
 SCF integral mode      SCFMode         .... Direct
   Integral package                     .... SHARK and LIBINT hybrid scheme
 Reset frequency        DirectResetFreq ....    20
 Integral Threshold     Thresh          ....  2.500e-11 Eh
 Primitive CutOff       TCut            ....  2.500e-12 Eh

Convergence Tolerance:
 Convergence Check Mode ConvCheckMode   .... Total+1el-Energy
 Convergence forced     ConvForced      .... 1
 Energy Change          TolE            ....  1.000e-08 Eh
 1-El. energy change                    ....  1.000e-05 Eh
 DIIS Error             TolErr          ....  5.000e-07


Diagonalization of the overlap matrix:
Smallest eigenvalue                        ... 1.491e-04
Time for diagonalization                   ...    0.100 sec
Threshold for overlap eigenvalues          ... 1.000e-08
Number of eigenvalues below threshold      ... 0
Time for construction of square roots      ...    0.058 sec
Total time needed                          ...    0.161 sec

Time for model grid setup =    0.730 sec

------------------------------
INITIAL GUESS: MODEL POTENTIAL
------------------------------
Loading Hartree-Fock densities                     ... done
  calling /project/ligandum/orca_504_openmpi411/orca Ru-PRC_2_B2GPPLYP_def2SVP_atom44.inp > Ru-PRC_2_B2GPPLYP_def2SVP_atom44.out in order to generate an atomic fitting density for atom 51 (Ru with ECP) on-the-fly... 
    atom 51 (Ru), assumed electronic state with S=5: 1s2 2s2 2p6 3s2 3p6 4s2 3d10 4p6 5s2 4d6           ... done
Calculating cut-offs                               ... done
Initializing the effective Hamiltonian             ... done
Setting up the integral package (SHARK)            ... done
Starting the Coulomb interaction                   ... done (   0.6 sec)
Reading the grid                                   ... done
Mapping shells                                     ... done
Starting the XC term evaluation                    ... done (   0.3 sec)
  promolecular density results
     # of electrons  =    348.008916634
     EX              =   -377.802835811
     EC              =     -1.609819939
     EX+EC           =   -379.412655750
Transforming the Hamiltonian                       ... done (   0.1 sec)
Diagonalizing the Hamiltonian                      ... done (   0.1 sec)
Back transforming the eigenvectors                 ... done (   0.0 sec)
Now organizing SCF variables                       ... done
                      ------------------
                      INITIAL GUESS DONE (   2.9 sec)
                      ------------------
-------------------
DFT GRID GENERATION
-------------------

General Integration Accuracy     IntAcc      ... 4.388
Radial Grid Type                 RadialGrid  ... OptM3 with GC (2021)
Angular Grid (max. ang.)         AngularGrid ... 4 (Lebedev-302)
Angular grid pruning method      GridPruning ... 4 (adaptive)
Weight generation scheme         WeightScheme... Becke
Basis function cutoff            BFCut       ... 1.0000e-11
Integration weight cutoff        WCut        ... 1.0000e-14
Angular grids for H and He will be reduced by one unit
Partially contracted basis set               ... off
Rotationally invariant grid construction     ... off

Total number of grid points                  ...   362865
Total number of batches                      ...     5709
Average number of points per batch           ...       63
Average number of grid points per atom       ...     4904
Time for grid setup =    2.743 sec

--------------------
COSX GRID GENERATION
--------------------

GRIDX 1
-------
General Integration Accuracy     IntAcc      ... 3.816
Radial Grid Type                 RadialGrid  ... OptM3 with GC (2021)
Angular Grid (max. ang.)         AngularGrid ... 1 (Lebedev-50)
Angular grid pruning method      GridPruning ... 4 (adaptive)
Weight generation scheme         WeightScheme... Becke
Basis function cutoff            BFCut       ... 1.0000e-11
Integration weight cutoff        WCut        ... 1.0000e-14
Angular grids for H and He will be reduced by one unit
Partially contracted basis set               ... on
Rotationally invariant grid construction     ... off

Total number of grid points                  ...    45788
Total number of batches                      ...      744
Average number of points per batch           ...       61
Average number of grid points per atom       ...      619
UseSFitting                                  ... on

GRIDX 2
-------
General Integration Accuracy     IntAcc      ... 4.020
Radial Grid Type                 RadialGrid  ... OptM3 with GC (2021)
Angular Grid (max. ang.)         AngularGrid ... 2 (Lebedev-110)
Angular grid pruning method      GridPruning ... 4 (adaptive)
Weight generation scheme         WeightScheme... Becke
Basis function cutoff            BFCut       ... 1.0000e-11
Integration weight cutoff        WCut        ... 1.0000e-14
Angular grids for H and He will be reduced by one unit
Partially contracted basis set               ... on
Rotationally invariant grid construction     ... off

Total number of grid points                  ...    99493
Total number of batches                      ...     1592
Average number of points per batch           ...       62
Average number of grid points per atom       ...     1344
UseSFitting                                  ... on

GRIDX 3
-------
General Integration Accuracy     IntAcc      ... 4.338
Radial Grid Type                 RadialGrid  ... OptM3 with GC (2021)
Angular Grid (max. ang.)         AngularGrid ... 3 (Lebedev-194)
Angular grid pruning method      GridPruning ... 4 (adaptive)
Weight generation scheme         WeightScheme... Becke
Basis function cutoff            BFCut       ... 1.0000e-11
Integration weight cutoff        WCut        ... 1.0000e-14
Angular grids for H and He will be reduced by one unit
Partially contracted basis set               ... on
Rotationally invariant grid construction     ... off

Total number of grid points                  ...   215791
Total number of batches                      ...     3408
Average number of points per batch           ...       63
Average number of grid points per atom       ...     2916
UseSFitting                                  ... on

Time for X-Grid setup             =    2.940 sec


--------------------
CPCM SOLVATION MODEL
--------------------
CPCM parameters:
  Epsilon                                         ...      37.2190
  Refrac                                          ...       1.4305
  Rsolv                                           ...       1.3000
  Surface type                                    ... GAUSSIAN VDW
  Epsilon function type                           ...         CPCM
Solvent:                                     ... DMF
SMD-CDS solvent descriptors:
  Soln                                       ...    1.4305
  Soln25                                     ...    1.4280
  Sola                                       ...    0.0000
  Solb                                       ...    0.7400
  Solg                                       ...   49.5600
  Solc                                       ...    0.0000
  Solh                                       ...    0.0000
Radii:
 Radius for C  used is    3.4960 Bohr (=   1.8500 Ang.)
 Radius for H  used is    2.2677 Bohr (=   1.2000 Ang.)
 Radius for N  used is    3.5716 Bohr (=   1.8900 Ang.)
 Radius for Ru used is    3.9117 Bohr (=   2.0700 Ang.)
Calculating surface                               ...        done! (  0.0s)
GEPOL surface points                              ...         4064
GEPOL Volume                                      ...    3996.9030
GEPOL Surface-area                                ...    2020.7397
Calculating surface distance matrix               ...        done! (  0.1s)
Performing Cholesky decomposition & store         ...        done! (  0.5s)
Overall time for CPCM initialization              ...                 0.6s
--------------
SCF ITERATIONS
--------------
ITER       Energy         Delta-E        Max-DP      RMS-DP      [F,P]     Damp
               ***  Starting incremental Fock matrix formation  ***
  0  -1918.4444390425   0.000000000000 0.21427543  0.00179192  0.3515511 0.7000
  1  -1919.0034974815  -0.559058438978 0.10584841  0.00123339  0.2995012 0.7000
  2  -1919.2315893355  -0.228091853945 0.08004540  0.00085757  0.2348466 0.7000
                               ***Turning on DIIS***
  3  -1919.3868748067  -0.155285471208 0.06611858  0.00062070  0.1677131 0.7000
  4  -1919.5017533894  -0.114878582729 0.03861008  0.00043623  0.1137730 0.7000
  5  -1919.5840573625  -0.082303973088 0.08570266  0.00106962  0.0791991 0.0000
  6  -1919.7894035583  -0.205346195815 0.01419773  0.00012251  0.0083187 0.0000
  7  -1919.7925222152  -0.003118656872 0.01119600  0.00007172  0.0035116 0.0000
  8  -1919.7935845306  -0.001062315435 0.00690090  0.00005751  0.0040532 0.0000
  9  -1919.7940865506  -0.000502019939 0.00503364  0.00004818  0.0009887 0.0000
               *** Restarting incremental Fock matrix formation ***
                                   *** Resetting DIIS ***
 10  -1919.7935639249   0.000522625624 0.00205029  0.00002935  0.0013048 0.0000
 11  -1919.7935745754  -0.000010650488 0.00112295  0.00001031  0.0006750 0.0000
 12  -1919.7935802992  -0.000005723785 0.00047418  0.00000378  0.0004299 0.0000
 13  -1919.7935815816  -0.000001282405 0.00020081  0.00000188  0.0000639 0.0000
 14  -1919.7935818106  -0.000000228993 0.00010272  0.00000076  0.0000506 0.0000
 15  -1919.7935817792   0.000000031367 0.00003832  0.00000024  0.0000199 0.0000
 16  -1919.7935818192  -0.000000039952 0.00004347  0.00000019  0.0000121 0.0000
 17  -1919.7935818134   0.000000005806 0.00001301  0.00000007  0.0000065 0.0000
 18  -1919.7935817992   0.000000014227 0.00001809  0.00000007  0.0000039 0.0000
 19  -1919.7935818057  -0.000000006498 0.00000377  0.00000003  0.0000018 0.0000
                            ***DIIS convergence achieved***

               *****************************************************
               *                     SUCCESS                       *
               *           SCF CONVERGED AFTER  20 CYCLES          *
               *****************************************************

Old exchange energy                            =   -169.345927268 Eh
New exchange energy                            =   -169.346098171 Eh
Exchange energy change after final integration =     -0.000170903 Eh
Total energy after final integration           =  -1919.793752664 Eh
Final COS-X integration done in                =    33.798 sec

SMD CDS free energy correction energy :                -6.37806     Kcal/mol
Total Energy after SMD CDS correction =             -1919.803916746 Eh

----------------
TOTAL SCF ENERGY
----------------

Total Energy       :        -1919.80391675 Eh          -52240.52043 eV

Components:
Nuclear Repulsion  :         6024.90548762 Eh          163946.01317 eV
Electronic Energy  :        -7944.70940436 Eh         -216186.53360 eV
One Electron Energy:       -14572.48910661 Eh         -396537.58817 eV
Two Electron Energy:         6627.77970224 Eh          180351.05457 eV
Max COSX asymmetry :            0.00008647 Eh               0.00235 eV
CPCM Dielectric    :           -0.21347878 Eh              -5.80905 eV
SMD CDS (Gcds)     :           -0.01016408 Eh              -0.27658 eV

Virial components:
Potential Energy   :        -3763.57618381 Eh         -102412.11449 eV
Kinetic Energy     :         1843.77226706 Eh           50171.59406 eV
Virial Ratio       :            2.04123701


DFT components:
N(Alpha)           :      159.000014716115 electrons
N(Beta)            :      159.000014716115 electrons
N(Total)           :      318.000029432231 electrons
E(X)               :      -91.414857593095 Eh       
E(C)               :       -6.996864043340 Eh       
E(XC)              :      -98.411721636435 Eh       
DFET-embed. en.    :        0.000000000000 Eh       
CPCM Solvation Model Properties:
Surface-charge          :           -2.06400179
Charge-correction       :            0.01141740 Eh               0.31068 eV
Free-energy (cav+disp)  :           -0.01016408 Eh              -0.27658 eV

---------------
SCF CONVERGENCE
---------------

  Last Energy change         ...    4.4219e-08  Tolerance :   1.0000e-08
  Last MAX-Density change    ...    0.0000e+00  Tolerance :   1.0000e-07
  Last RMS-Density change    ...    0.0000e+00  Tolerance :   5.0000e-09
  Last DIIS Error            ...    6.7160e-07  Tolerance :   5.0000e-07

             **** THE GBW FILE WAS UPDATED (Ru-PRC_2_B2GPPLYP_def2SVP.gbw) ****
             **** DENSITY Ru-PRC_2_B2GPPLYP_def2SVP.scfp WAS UPDATED ****
             **** ENERGY FILE WAS UPDATED (Ru-PRC_2_B2GPPLYP_def2SVP.en.tmp) ****
             **** THE GBW FILE WAS UPDATED (Ru-PRC_2_B2GPPLYP_def2SVP.gbw) ****
             **** DENSITY Ru-PRC_2_B2GPPLYP_def2SVP.scfp WAS UPDATED ****
----------------
ORBITAL ENERGIES
----------------

  NO   OCC          E(Eh)            E(eV) 
   0   2.0000     -15.090883      -410.6438 
   1   2.0000     -15.090626      -410.6368 
   2   2.0000     -15.090616      -410.6365 
   3   2.0000     -15.090602      -410.6361 
   4   2.0000     -15.090547      -410.6347 
   5   2.0000     -15.090389      -410.6303 
   6   2.0000     -10.855106      -295.3824 
   7   2.0000     -10.854814      -295.3745 
   8   2.0000     -10.854446      -295.3645 
   9   2.0000     -10.854386      -295.3628 
  10   2.0000     -10.854221      -295.3584 
  11   2.0000     -10.854103      -295.3552 
  12   2.0000     -10.853931      -295.3505 
  13   2.0000     -10.853857      -295.3485 
  14   2.0000     -10.853616      -295.3419 
  15   2.0000     -10.853597      -295.3414 
  16   2.0000     -10.852994      -295.3250 
  17   2.0000     -10.852288      -295.3058 
  18   2.0000     -10.826491      -294.6038 
  19   2.0000     -10.826234      -294.5968 
  20   2.0000     -10.826154      -294.5946 
  21   2.0000     -10.826092      -294.5930 
  22   2.0000     -10.826023      -294.5911 
  23   2.0000     -10.825327      -294.5721 
  24   2.0000     -10.825171      -294.5679 
  25   2.0000     -10.824989      -294.5629 
  26   2.0000     -10.824907      -294.5607 
  27   2.0000     -10.824846      -294.5590 
  28   2.0000     -10.824734      -294.5560 
  29   2.0000     -10.824367      -294.5460 
  30   2.0000     -10.821895      -294.4787 
  31   2.0000     -10.811974      -294.2088 
  32   2.0000     -10.811709      -294.2016 
  33   2.0000     -10.811651      -294.2000 
  34   2.0000     -10.811552      -294.1973 
  35   2.0000     -10.811485      -294.1955 
  36   2.0000     -10.811231      -294.1885 
  37   2.0000     -10.811139      -294.1860 
  38   2.0000     -10.811066      -294.1841 
  39   2.0000     -10.810219      -294.1610 
  40   2.0000     -10.810130      -294.1586 
  41   2.0000     -10.810036      -294.1560 
  42   2.0000     -10.807332      -294.0824 
  43   2.0000     -10.786109      -293.5049 
  44   2.0000     -10.779626      -293.3285 
  45   2.0000      -3.301775       -89.8459 
  46   2.0000      -2.058030       -56.0019 
  47   2.0000      -2.057714       -55.9933 
  48   2.0000      -2.050993       -55.8104 
  49   2.0000      -1.177884       -32.0519 
  50   2.0000      -1.170651       -31.8550 
  51   2.0000      -1.170488       -31.8506 
  52   2.0000      -1.141922       -31.0733 
  53   2.0000      -1.141512       -31.0621 
  54   2.0000      -1.141253       -31.0551 
  55   2.0000      -1.035734       -28.1838 
  56   2.0000      -1.033516       -28.1234 
  57   2.0000      -1.033311       -28.1178 
  58   2.0000      -1.009163       -27.4607 
  59   2.0000      -0.987139       -26.8614 
  60   2.0000      -0.986874       -26.8542 
  61   2.0000      -0.985309       -26.8116 
  62   2.0000      -0.982209       -26.7273 
  63   2.0000      -0.981950       -26.7202 
  64   2.0000      -0.952533       -25.9197 
  65   2.0000      -0.918007       -24.9802 
  66   2.0000      -0.917711       -24.9722 
  67   2.0000      -0.914617       -24.8880 
  68   2.0000      -0.913761       -24.8647 
  69   2.0000      -0.913403       -24.8550 
  70   2.0000      -0.903465       -24.5845 
  71   2.0000      -0.833540       -22.6818 
  72   2.0000      -0.814182       -22.1550 
  73   2.0000      -0.812920       -22.1207 
  74   2.0000      -0.812580       -22.1114 
  75   2.0000      -0.798088       -21.7171 
  76   2.0000      -0.797543       -21.7022 
  77   2.0000      -0.794900       -21.6303 
  78   2.0000      -0.788740       -21.4627 
  79   2.0000      -0.788498       -21.4561 
  80   2.0000      -0.786925       -21.4133 
  81   2.0000      -0.753056       -20.4917 
  82   2.0000      -0.751352       -20.4453 
  83   2.0000      -0.750939       -20.4341 
  84   2.0000      -0.704659       -19.1747 
  85   2.0000      -0.691318       -18.8117 
  86   2.0000      -0.689857       -18.7720 
  87   2.0000      -0.685195       -18.6451 
  88   2.0000      -0.673630       -18.3304 
  89   2.0000      -0.672589       -18.3021 
  90   2.0000      -0.654497       -17.8098 
  91   2.0000      -0.652830       -17.7644 
  92   2.0000      -0.650941       -17.7130 
  93   2.0000      -0.650679       -17.7059 
  94   2.0000      -0.613696       -16.6995 
  95   2.0000      -0.611663       -16.6442 
  96   2.0000      -0.610798       -16.6207 
  97   2.0000      -0.610514       -16.6129 
  98   2.0000      -0.609480       -16.5848 
  99   2.0000      -0.604199       -16.4411 
 100   2.0000      -0.598396       -16.2832 
 101   2.0000      -0.598011       -16.2727 
 102   2.0000      -0.596267       -16.2253 
 103   2.0000      -0.567278       -15.4364 
 104   2.0000      -0.565475       -15.3874 
 105   2.0000      -0.563469       -15.3328 
 106   2.0000      -0.561886       -15.2897 
 107   2.0000      -0.552154       -15.0249 
 108   2.0000      -0.551698       -15.0125 
 109   2.0000      -0.550015       -14.9667 
 110   2.0000      -0.546406       -14.8685 
 111   2.0000      -0.546205       -14.8630 
 112   2.0000      -0.542567       -14.7640 
 113   2.0000      -0.541643       -14.7389 
 114   2.0000      -0.540817       -14.7164 
 115   2.0000      -0.529627       -14.4119 
 116   2.0000      -0.527816       -14.3626 
 117   2.0000      -0.526015       -14.3136 
 118   2.0000      -0.524076       -14.2608 
 119   2.0000      -0.521374       -14.1873 
 120   2.0000      -0.518759       -14.1161 
 121   2.0000      -0.517791       -14.0898 
 122   2.0000      -0.515752       -14.0343 
 123   2.0000      -0.509199       -13.8560 
 124   2.0000      -0.501588       -13.6489 
 125   2.0000      -0.495990       -13.4966 
 126   2.0000      -0.494783       -13.4637 
 127   2.0000      -0.484235       -13.1767 
 128   2.0000      -0.480712       -13.0808 
 129   2.0000      -0.474743       -12.9184 
 130   2.0000      -0.471915       -12.8414 
 131   2.0000      -0.470327       -12.7982 
 132   2.0000      -0.464917       -12.6510 
 133   2.0000      -0.447987       -12.1904 
 134   2.0000      -0.445803       -12.1309 
 135   2.0000      -0.443936       -12.0801 
 136   2.0000      -0.443749       -12.0750 
 137   2.0000      -0.440895       -11.9974 
 138   2.0000      -0.437698       -11.9104 
 139   2.0000      -0.433482       -11.7956 
 140   2.0000      -0.415729       -11.3126 
 141   2.0000      -0.414547       -11.2804 
 142   2.0000      -0.406184       -11.0528 
 143   2.0000      -0.404140       -10.9972 
 144   2.0000      -0.396384       -10.7862 
 145   2.0000      -0.389684       -10.6038 
 146   2.0000      -0.386845       -10.5266 
 147   2.0000      -0.382192       -10.4000 
 148   2.0000      -0.380346       -10.3497 
 149   2.0000      -0.340742        -9.2721 
 150   2.0000      -0.317900        -8.6505 
 151   2.0000      -0.317235        -8.6324 
 152   2.0000      -0.312364        -8.4998 
 153   2.0000      -0.308012        -8.3814 
 154   2.0000      -0.301480        -8.2037 
 155   2.0000      -0.293203        -7.9785 
 156   2.0000      -0.283248        -7.7076 
 157   2.0000      -0.279251        -7.5988 
 158   2.0000      -0.277604        -7.5540 
 159   0.0000      -0.025718        -0.6998 
 160   0.0000      -0.018723        -0.5095 
 161   0.0000      -0.017123        -0.4659 
 162   0.0000      -0.012595        -0.3427 
 163   0.0000      -0.008306        -0.2260 
 164   0.0000      -0.007792        -0.2120 
 165   0.0000       0.031999         0.8707 
 166   0.0000       0.044238         1.2038 
 167   0.0000       0.047597         1.2952 
 168   0.0000       0.062133         1.6907 
 169   0.0000       0.076118         2.0713 
 170   0.0000       0.077408         2.1064 
 171   0.0000       0.100821         2.7435 
 172   0.0000       0.113307         3.0832 
 173   0.0000       0.121942         3.3182 
 174   0.0000       0.123089         3.3494 
 175   0.0000       0.129483         3.5234 
 176   0.0000       0.131171         3.5693 
 177   0.0000       0.136461         3.7133 
 178   0.0000       0.137126         3.7314 
 179   0.0000       0.137553         3.7430 
 180   0.0000       0.141451         3.8491 
 181   0.0000       0.144086         3.9208 
 182   0.0000       0.146447         3.9850 
 183   0.0000       0.154260         4.1976 
 184   0.0000       0.154820         4.2129 
 185   0.0000       0.155715         4.2372 
 186   0.0000       0.161256         4.3880 
 187   0.0000       0.164843         4.4856 
 188   0.0000       0.167048         4.5456 
 189   0.0000       0.171011         4.6535 
 190   0.0000       0.177083         4.8187 
 191   0.0000       0.183050         4.9810 
 192   0.0000       0.188692         5.1346 
 193   0.0000       0.191505         5.2111 
 194   0.0000       0.195125         5.3096 
 195   0.0000       0.196899         5.3579 
 196   0.0000       0.200872         5.4660 
 197   0.0000       0.207937         5.6583 
 198   0.0000       0.211920         5.7666 
 199   0.0000       0.212519         5.7829 
 200   0.0000       0.215329         5.8594 
 201   0.0000       0.215908         5.8752 
 202   0.0000       0.224536         6.1099 
 203   0.0000       0.228317         6.2128 
 204   0.0000       0.235208         6.4003 
 205   0.0000       0.236126         6.4253 
 206   0.0000       0.239407         6.5146 
 207   0.0000       0.241751         6.5784 
 208   0.0000       0.244790         6.6611 
 209   0.0000       0.247125         6.7246 
 210   0.0000       0.273579         7.4445 
 211   0.0000       0.290148         7.8953 
 212   0.0000       0.301474         8.2035 
 213   0.0000       0.303438         8.2570 
 214   0.0000       0.304533         8.2868 
 215   0.0000       0.307458         8.3664 
 216   0.0000       0.310927         8.4607 
 217   0.0000       0.312500         8.5035 
 218   0.0000       0.313607         8.5337 
 219   0.0000       0.319812         8.7025 
 220   0.0000       0.320894         8.7320 
 221   0.0000       0.325268         8.8510 
 222   0.0000       0.326273         8.8784 
 223   0.0000       0.335858         9.1392 
 224   0.0000       0.338496         9.2110 
 225   0.0000       0.341325         9.2879 
 226   0.0000       0.343415         9.3448 
 227   0.0000       0.346454         9.4275 
 228   0.0000       0.348148         9.4736 
 229   0.0000       0.357699         9.7335 
 230   0.0000       0.360432         9.8079 
 231   0.0000       0.365823         9.9546 
 232   0.0000       0.369486        10.0542 
 233   0.0000       0.371913        10.1203 
 234   0.0000       0.372575        10.1383 
 235   0.0000       0.375574        10.2199 
 236   0.0000       0.377394        10.2694 
 237   0.0000       0.381253        10.3744 
 238   0.0000       0.383904        10.4466 
 239   0.0000       0.385299        10.4845 
 240   0.0000       0.387865        10.5543 
 241   0.0000       0.390972        10.6389 
 242   0.0000       0.394169        10.7259 
 243   0.0000       0.397737        10.8230 
 244   0.0000       0.401514        10.9257 
 245   0.0000       0.402865        10.9625 
 246   0.0000       0.410175        11.1614 
 247   0.0000       0.416017        11.3204 
 248   0.0000       0.417603        11.3635 
 249   0.0000       0.421716        11.4755 
 250   0.0000       0.423036        11.5114 
 251   0.0000       0.430156        11.7051 
 252   0.0000       0.435425        11.8485 
 253   0.0000       0.441574        12.0158 
 254   0.0000       0.445202        12.1146 
 255   0.0000       0.450688        12.2638 
 256   0.0000       0.451641        12.2898 
 257   0.0000       0.457109        12.4386 
 258   0.0000       0.459576        12.5057 
 259   0.0000       0.467428        12.7194 
 260   0.0000       0.468699        12.7540 
 261   0.0000       0.473650        12.8887 
 262   0.0000       0.481669        13.1069 
 263   0.0000       0.489688        13.3251 
 264   0.0000       0.497372        13.5342 
 265   0.0000       0.500352        13.6153 
 266   0.0000       0.505095        13.7443 
 267   0.0000       0.506881        13.7929 
 268   0.0000       0.510251        13.8846 
 269   0.0000       0.513366        13.9694 
 270   0.0000       0.519102        14.1255 
 271   0.0000       0.525027        14.2867 
 272   0.0000       0.528742        14.3878 
 273   0.0000       0.533981        14.5304 
 274   0.0000       0.535909        14.5828 
 275   0.0000       0.542418        14.7600 
 276   0.0000       0.543242        14.7824 
 277   0.0000       0.544093        14.8055 
 278   0.0000       0.547111        14.8876 
 279   0.0000       0.549187        14.9441 
 280   0.0000       0.549877        14.9629 
 281   0.0000       0.558425        15.1955 
 282   0.0000       0.560511        15.2523 
 283   0.0000       0.563029        15.3208 
 284   0.0000       0.563760        15.3407 
 285   0.0000       0.564296        15.3553 
 286   0.0000       0.566777        15.4228 
 287   0.0000       0.568740        15.4762 
 288   0.0000       0.569988        15.5102 
 289   0.0000       0.575383        15.6570 
 290   0.0000       0.577857        15.7243 
[...]
   156a -> 165a  :     0.085761 
   156a -> 166a  :     0.059002 
   157a -> 164a  :     0.031645 
   158a -> 164a  :     0.017260 
   158a -> 165a  :     0.058112 
   158a -> 166a  :     0.043171 
   158a -> 168a  :     0.026855 

STATE 36:  E=   0.168382 au      4.582 eV    36955.5 cm**-1 <S**2> =   0.000000
   150a -> 162a  :     0.012328 
   150a -> 163a  :     0.248335 
   151a -> 162a  :     0.124924 
   151a -> 164a  :     0.039699 
   152a -> 160a  :     0.056124 
   152a -> 163a  :     0.028348 
   153a -> 161a  :     0.027246 
   153a -> 162a  :     0.134781 
   153a -> 164a  :     0.027797 
   154a -> 161a  :     0.063712 
   155a -> 160a  :     0.033619 
   156a -> 160a  :     0.017033 
   156a -> 163a  :     0.056684 

STATE 37:  E=   0.174867 au      4.758 eV    38378.9 cm**-1 <S**2> =   0.000000
   149a -> 159a  :     0.014084 
   150a -> 161a  :     0.012803 
   150a -> 162a  :     0.185205 
   150a -> 164a  :     0.047159 
   151a -> 160a  :     0.016210 
   151a -> 163a  :     0.143746 
   152a -> 161a  :     0.045230 
   152a -> 162a  :     0.034700 
   152a -> 164a  :     0.013580 
   153a -> 160a  :     0.010025 
   153a -> 163a  :     0.145144 
   154a -> 160a  :     0.072273 
   154a -> 161a  :     0.011041 
   156a -> 164a  :     0.029663 
   156a -> 165a  :     0.013252 
   157a -> 161a  :     0.015946 

STATE 38:  E=   0.175973 au      4.788 eV    38621.6 cm**-1 <S**2> =   0.000000
   152a -> 160a  :     0.059196 
   152a -> 161a  :     0.023089 
   154a -> 160a  :     0.045499 
   154a -> 161a  :     0.029639 
   155a -> 160a  :     0.289140 
   155a -> 161a  :     0.103335 
   156a -> 160a  :     0.171000 
   156a -> 161a  :     0.065087 
   158a -> 160a  :     0.089879 
   158a -> 161a  :     0.036246 

STATE 39:  E=   0.177036 au      4.817 eV    38855.0 cm**-1 <S**2> =   0.000000
   149a -> 161a  :     0.010587 
   153a -> 159a  :     0.035452 
   154a -> 159a  :     0.098868 
   154a -> 160a  :     0.028155 
   154a -> 166a  :     0.011449 
   155a -> 160a  :     0.081760 
   155a -> 161a  :     0.195750 
   156a -> 160a  :     0.036224 
   156a -> 161a  :     0.117535 
   157a -> 165a  :     0.016504 
   158a -> 159a  :     0.019094 
   158a -> 160a  :     0.019582 
   158a -> 161a  :     0.031006 
   158a -> 165a  :     0.150297 
   158a -> 166a  :     0.016032 

STATE 40:  E=   0.178654 au      4.861 eV    39209.9 cm**-1 <S**2> =   0.000000
   149a -> 159a  :     0.010458 
   151a -> 159a  :     0.017747 
   153a -> 159a  :     0.067652 
   154a -> 159a  :     0.167007 
   155a -> 159a  :     0.024480 
   155a -> 160a  :     0.062360 
   155a -> 161a  :     0.170438 
   156a -> 159a  :     0.016229 
   156a -> 160a  :     0.036605 
   156a -> 161a  :     0.082570 
   158a -> 159a  :     0.017066 
   158a -> 161a  :     0.039118 
   158a -> 165a  :     0.108328 
   158a -> 166a  :     0.013733 


-------------------------
TD-DFT-EXCITATION SPECTRA
-------------------------

Center of mass = (  0.0489, -0.0060,  0.0290)
Calculating the Dipole integrals                  ... done
Transforming integrals                            ... done
Calculating the Linear Momentum integrals         ... done
Transforming integrals                            ... done
Calculating angular momentum integrals            ... done
Transforming integrals                            ... done

-----------------------------------------------------------------------------
         ABSORPTION SPECTRUM VIA TRANSITION ELECTRIC DIPOLE MOMENTS
-----------------------------------------------------------------------------
State   Energy    Wavelength  fosc         T2        TX        TY        TZ  
        (cm-1)      (nm)                 (au**2)    (au)      (au)      (au) 
-----------------------------------------------------------------------------
   1   31169.1    320.8   0.000863720   0.00912  -0.09520   0.00586   0.00497
   2   31248.3    320.0   0.000616100   0.00649  -0.00894   0.07950  -0.00952
   3   32555.6    307.2   0.000093893   0.00095   0.02055   0.02099   0.00930
   4   26982.9    370.6   0.112193135   1.36884   0.63954  -0.58728   0.78418
   5   24553.2    407.3   0.092561248   1.24107   0.72883   0.84097  -0.05137
   6   24567.2    407.0   0.123604423   1.65635  -1.01071   0.71581   0.34990
   7   23560.7    424.4   0.005196003   0.07260  -0.21708  -0.15778   0.02418
   8   23396.4    427.4   0.011992217   0.16874   0.34500  -0.21649   0.05337
   9   27118.1    368.8   0.019161050   0.23261   0.32057   0.35678  -0.05052
  10   22358.9    447.2   0.004004050   0.05896   0.19006  -0.13410   0.06964
  11   23861.4    419.1   0.001873018   0.02584  -0.10485   0.12172   0.00562
  12   22295.3    448.5   0.007302696   0.10783   0.23506  -0.22925  -0.00451
  13   23394.1    427.5   0.027213602   0.38296   0.19900  -0.41674   0.41193
  14   29235.7    342.0   0.013699723   0.15427  -0.22788  -0.26744   0.17553
  15   27823.3    359.4   0.070285130   0.83163   0.05430   0.58413   0.69820
  16   28542.9    350.3   0.115362623   1.33058  -0.67975  -0.84316   0.39700
  17   33875.3    295.2   0.015930638   0.15482  -0.06753   0.29800   0.24790
  18   35224.2    283.9   0.006281308   0.05871  -0.00902  -0.23879   0.04005
  19   32904.4    303.9   0.107085343   1.07140  -0.21198  -0.93581   0.38824
  20   27914.1    358.2   0.361972306   4.26901  -1.84191   0.93610  -0.01007
  21   32631.8    306.4   0.603583777   6.08936   2.00868  -0.48572   1.34857
  22   27684.1    361.2   0.011280265   0.13414   0.04083   0.33652  -0.13867
  23   26596.3    376.0   0.118514949   1.46699   0.85008   0.85724  -0.09745
  24   24662.3    405.5   0.011006156   0.14692  -0.02060  -0.03102   0.38149
  25   23336.8    428.5   0.026944067   0.38010   0.05563   0.54506  -0.28269
  26   34269.8    291.8   0.253312723   2.43344   0.75173   1.32272  -0.34460
  27   26146.3    382.5   0.047723835   0.60090   0.64391   0.25030  -0.35161
  28   23285.8    429.4   0.048310056   0.68300   0.48761  -0.48338  -0.45999
  29   24597.0    406.6   0.053428006   0.71509  -0.29728  -0.21250  -0.76260
  30   36257.2    275.8   1.307253282  11.86973  -0.75966  -0.47616  -3.32655
  31   26630.7    375.5   0.005429485   0.06712   0.24746   0.00488  -0.07654
  32   26835.9    372.6   0.012005320   0.14728  -0.12600  -0.36002  -0.04226
  33   26901.0    371.7   0.000995860   0.01219  -0.09307  -0.03839  -0.04530
  34   30355.3    329.4   0.144227047   1.56418  -1.01959  -0.66935  -0.27676
  35   38746.4    258.1   0.066133866   0.56191   0.61463   0.42660  -0.04645
  36   36955.5    270.6   0.409323698   3.64639  -1.49370   1.07219   0.51541
  37   38378.9    260.6   0.088167011   0.75629  -0.41003  -0.66314   0.38525
  38   38621.6    258.9   0.005050185   0.04305   0.00679  -0.20728   0.00610
  39   38855.0    257.4   0.070741715   0.59938  -0.29807   0.56343  -0.43941
  40   39209.9    255.0   0.058911204   0.49463  -0.23064   0.54723  -0.37680

-----------------------------------------------------------------------------
         ABSORPTION SPECTRUM VIA TRANSITION VELOCITY DIPOLE MOMENTS
-----------------------------------------------------------------------------
State   Energy    Wavelength   fosc        P2         PX        PY        PZ  
        (cm-1)      (nm)                 (au**2)     (au)      (au)      (au) 
-----------------------------------------------------------------------------
   1   31169.1    320.8   0.000787101   0.00017   0.01289  -0.00093  -0.00086
   2   31248.3    320.0   0.000576890   0.00012   0.00105  -0.01096   0.00138
   3   32555.6    307.2   0.000068668   0.00002  -0.00256  -0.00287  -0.00071
   4   26982.9    370.6   0.160891545   0.02967  -0.08962   0.09086  -0.11569
   5   24553.2    407.3   0.187882057   0.03153  -0.11504  -0.13493   0.00941
   6   24567.2    407.0   0.259691928   0.04360   0.16388  -0.11624  -0.05688
   7   23560.7    424.4   0.011358193   0.00183   0.03431   0.02515  -0.00438
   8   23396.4    427.4   0.026532836   0.00424  -0.05446   0.03525  -0.00583
   9   27118.1    368.8   0.033730690   0.00625  -0.05149  -0.05929   0.00928
  10   22358.9    447.2   0.011474753   0.00175  -0.03281   0.02343  -0.01132
  11   23861.4    419.1   0.004123932   0.00067   0.01839  -0.01821  -0.00160
  12   22295.3    448.5   0.018813736   0.00287  -0.03691   0.03876   0.00142
  13   23394.1    427.5   0.063964208   0.01023  -0.02969   0.06826  -0.06845
  14   29235.7    342.0   0.023604182   0.00472   0.04047   0.04670  -0.02996
  15   27823.3    359.4   0.127891674   0.02432  -0.00885  -0.09935  -0.11988
  16   28542.9    350.3   0.188771046   0.03682   0.11063   0.14108  -0.06843
  17   33875.3    295.2   0.018493036   0.00428   0.01091  -0.04894  -0.04204
  18   35224.2    283.9   0.006977908   0.00168   0.00178   0.04037  -0.00686
  19   32904.4    303.9   0.136717302   0.03075   0.03370   0.15826  -0.06756
  20   27914.1    358.2   0.642743428   0.12262   0.31194  -0.15906   0.00375
  21   32631.8    306.4   0.818452653   0.18253  -0.34627   0.08765  -0.23440
  22   27684.1    361.2   0.022805354   0.00431  -0.00830  -0.06033   0.02462
  23   26596.3    376.0   0.277815308   0.05050  -0.15454  -0.16198   0.01948
  24   24662.3    405.5   0.030301073   0.00511   0.00890   0.00321  -0.07084
  25   23336.8    428.5   0.076964501   0.01228  -0.01192  -0.09750   0.05125
  26   34269.8    291.8   0.330014809   0.07730  -0.13338  -0.23608   0.06140
  27   26146.3    382.5   0.126584676   0.02262  -0.12183  -0.05604   0.06810
  28   23285.8    429.4   0.162120524   0.02580  -0.09623   0.09535   0.08630
  29   24597.0    406.6   0.143306390   0.02409   0.05787   0.03967   0.13845
  30   36257.2    275.8   1.608480445   0.39858   0.14120   0.08691   0.60917
  31   26630.7    375.5   0.014074343   0.00256  -0.04801  -0.00028   0.01602
  32   26835.9    372.6   0.031617169   0.00580   0.02390   0.07195   0.00713
  33   26901.0    371.7   0.001977015   0.00036   0.01690   0.00805   0.00361
  34   30355.3    329.4   0.291777671   0.06053   0.19735   0.13874   0.04833
  35   38746.4    258.1   0.088775350   0.02351  -0.12895  -0.08291   0.00277
  36   36955.5    270.6   0.613688026   0.15500   0.30813  -0.22103  -0.10585
  37   38378.9    260.6   0.124549063   0.03267   0.08554   0.13764  -0.08005
  38   38621.6    258.9   0.007865110   0.00208  -0.00431   0.04536  -0.00017
  39   38855.0    257.4   0.102683228   0.02727   0.06258  -0.12183   0.09224
  40   39209.9    255.0   0.082727103   0.02217   0.04685  -0.11675   0.07965

-------------------------------------------------------------------
                             CD SPECTRUM
-------------------------------------------------------------------
State  Energy     Wavelength     R         MX        MY        MZ   
       (cm-1)       (nm)     (1e40*cgs)   (au)      (au)      (au)  
-------------------------------------------------------------------
   1   31169.1    320.8     36.93902  -0.80192   0.11606   0.26675
   2   31248.3    320.0     31.18519   0.13958   0.84765  -0.00068
   3   32555.6    307.2     -5.94611  -0.28979   0.05193  -0.83300
   4   26982.9    370.6      7.07267  -0.33203   0.31648   0.52693
   5   24553.2    407.3    -24.67536  -0.14859   0.07952   0.21251
   6   24567.2    407.0    -52.76042   0.05214  -0.09449   0.02409
   7   23560.7    424.4     54.11125  -0.23784  -0.39733   0.01876
   8   23396.4    427.4     65.36012   0.26844  -0.13604   0.31056
   9   27118.1    368.8     -9.07835  -0.05030  -0.00284   0.04192
  10   22358.9    447.2    -15.18020  -0.08916   0.01120  -0.19745
  11   23861.4    419.1      1.43139  -0.03463  -0.00490   0.00034
  12   22295.3    448.5      8.20515   0.04122  -0.03386   0.01060
  13   23394.1    427.5     -5.56828   0.13777  -0.18434  -0.28172
  14   29235.7    342.0    -160.29180   0.59076   0.66729  -0.15332
  15   27823.3    359.4     37.20260   0.58101  -0.52367   0.50595
  16   28542.9    350.3    -89.75929   0.22566   0.10287   0.12529
  17   33875.3    295.2     14.87929   0.01132   0.02631   0.09877
  18   35224.2    283.9     -4.10715   0.04363   0.03062  -0.02512
  19   32904.4    303.9    -10.21879  -0.09120   0.10843   0.15573
  20   27914.1    358.2    -346.40210   0.24971  -0.29676  -0.29558
  21   32631.8    306.4    -302.30903  -0.90356   0.75209   1.14123
  22   27684.1    361.2     -6.55001   0.11996  -0.07470  -0.04577
  23   26596.3    376.0    -297.88304  -0.51079  -0.19060   0.35139
  24   24662.3    405.5     37.86339  -0.17257   0.22118   0.21919
  25   23336.8    428.5    -142.86692  -0.09969  -0.58848  -0.08231
  26   34269.8    291.8    -1485.62875  -1.10941  -1.64865   0.39611
  27   26146.3    382.5    -67.62539  -0.33971   0.43380   0.09464
  28   23285.8    429.4    -58.45501  -0.20220   0.12077  -0.07170
  29   24597.0    406.6    132.03126  -0.33385   0.24350  -0.30494
  30   36257.2    275.8    2492.63971  -1.30681   0.72778  -1.39513
  31   26630.7    375.5    -75.10970  -0.58391  -0.14284   0.18453
  32   26835.9    372.6    -99.17660  -0.07440   0.59996   0.08857
  33   26901.0    371.7    -12.93464   0.04672  -0.06054   0.56102
  34   30355.3    329.4     16.34345   0.26034  -0.22719  -0.53489
  35   38746.4    258.1     21.72128   0.13910  -0.13271  -0.37015
  36   36955.5    270.6     -4.25598  -0.03640  -0.09875   0.08241
  37   38378.9    260.6     -7.76425   0.02532  -0.00646  -0.02691
  38   38621.6    258.9      0.65966   0.00584  -0.00886  -0.07811
  39   38855.0    257.4    -30.75876   0.06700  -0.25966  -0.22992
  40   39209.9    255.0     -9.14942   0.07476  -0.18649  -0.26510

-------------------------------------------------------------------
         CD SPECTRUM VIA TRANSITION VELOCITY DIPOLE MOMENTS        
-------------------------------------------------------------------
State  Energy     Wavelength     R         MX        MY        MZ   
       (cm-1)       (nm)     (1e40*cgs)   (au)      (au)      (au)  
-------------------------------------------------------------------
   1   31169.1    320.8     35.42512  -0.80192   0.11606   0.26675
   2   31248.3    320.0     30.28782   0.13958   0.84765  -0.00068
   3   32555.6    307.2     -3.76896  -0.28979   0.05193  -0.83300
   4   26982.9    370.6      9.39040  -0.33203   0.31648   0.52693
   5   24553.2    407.3    -35.24264  -0.14859   0.07952   0.21251
   6   24567.2    407.0    -76.48071   0.05214  -0.09449   0.02409
   7   23560.7    424.4     80.08776  -0.23784  -0.39733   0.01876
   8   23396.4    427.4     93.86743   0.26844  -0.13604   0.31056
   9   27118.1    368.8    -12.00783  -0.05030  -0.00284   0.04192
  10   22358.9    447.2    -25.09830  -0.08916   0.01120  -0.19745
  11   23861.4    419.1      2.37719  -0.03463  -0.00490   0.00034
  12   22295.3    448.5     13.08222   0.04122  -0.03386   0.01060
  13   23394.1    427.5    -11.55088   0.13777  -0.18434  -0.28172
  14   29235.7    342.0    -211.16010   0.59076   0.66729  -0.15332
  15   27823.3    359.4     51.21489   0.58101  -0.52367   0.50595
  16   28542.9    350.3    -112.02597   0.22566   0.10287   0.12529
  17   33875.3    295.2     16.23967   0.01132   0.02631   0.09877
  18   35224.2    283.9     -4.36502   0.04363   0.03062  -0.02512
  19   32904.4    303.9    -11.21329  -0.09120   0.10843   0.15573
  20   27914.1    358.2    -459.59311   0.24971  -0.29676  -0.29558
  21   32631.8    306.4    -352.88701  -0.90356   0.75209   1.14123
  22   27684.1    361.2     -8.90920   0.11996  -0.07470  -0.04577
  23   26596.3    376.0    -453.84267  -0.51079  -0.19060   0.35139
  24   24662.3    405.5     68.60512  -0.17257   0.22118   0.21919
  25   23336.8    428.5    -240.98155  -0.09969  -0.58848  -0.08231
  26   34269.8    291.8    -1695.38274  -1.10941  -1.64865   0.39611
  27   26146.3    382.5    -93.07207  -0.33971   0.43380   0.09464
  28   23285.8    429.4    -110.13719  -0.20220   0.12077  -0.07170
  29   24597.0    406.6    218.23212  -0.33385   0.24350  -0.30494
  30   36257.2    275.8    2771.47014  -1.30681   0.72778  -1.39513
  31   26630.7    375.5    -120.56316  -0.58391  -0.14284   0.18453
  32   26835.9    372.6    -162.02053  -0.07440   0.59996   0.08857
  33   26901.0    371.7     -8.94989   0.04672  -0.06054   0.56102
  34   30355.3    329.4     20.44036   0.26034  -0.22719  -0.53489
  35   38746.4    258.1     21.25879   0.13910  -0.13271  -0.37015
  36   36955.5    270.6     -5.28235  -0.03640  -0.09875   0.08241
  37   38378.9    260.6     -9.25165   0.02532  -0.00646  -0.02691
  38   38621.6    258.9      1.10774   0.00584  -0.00886  -0.07811
  39   38855.0    257.4    -38.93010   0.06700  -0.25966  -0.22992
  40   39209.9    255.0    -10.97900   0.07476  -0.18649  -0.26510

Total run time:     7441.069 sec

           *** ORCA-CIS/TD-DFT FINISHED WITHOUT ERROR ***

Maximum memory used throughout the entire CIS-calculation: 3841.0 MB

-----------------------
CIS/TD-DFT TOTAL ENERGY
-----------------------

    E(SCF)  =  -1919.803916746 Eh
    DE(CIS) =      0.142016847 Eh (Root  1)
    ----------------------------- ---------
    E(tot)  =  -1919.661899899 Eh


-------------------------   --------------------
FINAL SINGLE POINT ENERGY     -1919.661899899298
-------------------------   --------------------


                            ***************************************
                            *     ORCA property calculations      *
                            ***************************************


  WARNING: The energy has been calculated at the MP2 level but the densities
           used in the property calculations are still SCF densities
           MP2 response densities have not been calculated 
           use %mp2 Density relaxed end
           or  %mp2 Density unrelaxed end

                                    ---------------------
                                    Active property flags
                                    ---------------------
   (+) Dipole Moment


------------------------------------------------------------------------------
                       ORCA ELECTRIC PROPERTIES CALCULATION
------------------------------------------------------------------------------

Dipole Moment Calculation                       ... on
Quadrupole Moment Calculation                   ... off
Polarizability Calculation                      ... off
GBWName                                         ... Ru-PRC_2_B2GPPLYP_def2SVP.gbw
Electron density                                ... Ru-PRC_2_B2GPPLYP_def2SVP.scfp
The origin for moment calculation is the CENTER OF MASS  = ( 0.048935, -0.006031  0.029029)

-------------
DIPOLE MOMENT
-------------
                                X             Y             Z
Electronic contribution:     35.81179      -1.76214      19.80415
Nuclear contribution   :    -34.75061       1.93911     -19.30544
                        -----------------------------------------
Total Dipole Moment    :      1.06118       0.17697       0.49871
                        -----------------------------------------
Magnitude (a.u.)       :      1.18581
Magnitude (Debye)      :      3.01408



--------------------
Rotational spectrum 
--------------------
 
Rotational constants in cm-1:     0.002931     0.002526     0.002104 
Rotational constants in MHz :    87.864409    75.721626    63.072758 

 Dipole components along the rotational axes: 
x,y,z [a.u.] :    -1.054061     0.171699     0.515373 
x,y,z [Debye]:    -2.679211     0.436424     1.309973 

 

Timings for individual modules:

Sum of individual times         ...     7917.863 sec (= 131.964 min)
GTO integral calculation        ...        2.846 sec (=   0.047 min)   0.0 %
SCF iterations                  ...      322.755 sec (=   5.379 min)   4.1 %
MP2 module                      ...      150.914 sec (=   2.515 min)   1.9 %
CIS module                      ...     7441.348 sec (= 124.022 min)  94.0 %
                             ****ORCA TERMINATED NORMALLY****
TOTAL RUN TIME: 0 days 2 hours 11 minutes 59 seconds 666 msec
