
                                 *****************
                                 * O   R   C   A *
                                 *****************

                                            #,                                       
                                            ###                                      
                                            ####                                     
                                            #####                                    
                                            ######                                   
                                           ########,                                 
                                     ,,################,,,,,                         
                               ,,#################################,,                 
                          ,,##########################################,,             
                       ,#########################################, ''#####,          
                    ,#############################################,,   '####,        
                  ,##################################################,,,,####,       
                ,###########''''           ''''###############################       
              ,#####''   ,,,,##########,,,,          '''####'''          '####       
            ,##' ,,,,###########################,,,                        '##       
           ' ,,###''''                  '''############,,,                           
         ,,##''                                '''############,,,,        ,,,,,,###''
      ,#''                                            '''#######################'''  
     '                                                          ''''####''''         
             ,#######,   #######,   ,#######,      ##                                
            ,#'     '#,  ##    ##  ,#'     '#,    #''#        ######   ,####,        
            ##       ##  ##   ,#'  ##            #'  '#       #        #'  '#        
            ##       ##  #######   ##           ,######,      #####,   #    #        
            '#,     ,#'  ##    ##  '#,     ,#' ,#      #,         ##   #,  ,#        
             '#######'   ##     ##  '#######'  #'      '#     #####' # '####'        



                  #######################################################
                  #                        -***-                        #
                  #          Department of theory and spectroscopy      #
                  #    Directorship and core code : Frank Neese         #
                  #        Max Planck Institute fuer Kohlenforschung    #
                  #                Kaiser Wilhelm Platz 1               #
                  #                 D-45470 Muelheim/Ruhr               #
                  #                      Germany                        #
                  #                                                     #
                  #                  All rights reserved                #
                  #                        -***-                        #
                  #######################################################


                         Program Version 5.0.4 -  RELEASE  -


 With contributions from (in alphabetic order):
   Daniel Aravena         : Magnetic Suceptibility
   Michael Atanasov       : Ab Initio Ligand Field Theory (pilot matlab implementation)
   Alexander A. Auer      : GIAO ZORA, VPT2 properties, NMR spectrum
   Ute Becker             : Parallelization
   Giovanni Bistoni       : ED, misc. LED, open-shell LED, HFLD
   Martin Brehm           : Molecular dynamics
   Dmytro Bykov           : SCF Hessian
   Vijay G. Chilkuri      : MRCI spin determinant printing, contributions to CSF-ICE
   Dipayan Datta          : RHF DLPNO-CCSD density
   Achintya Kumar Dutta   : EOM-CC, STEOM-CC
   Dmitry Ganyushin       : Spin-Orbit,Spin-Spin,Magnetic field MRCI
   Miquel Garcia          : C-PCM and meta-GGA Hessian, CC/C-PCM, Gaussian charge scheme
   Yang Guo               : DLPNO-NEVPT2, F12-NEVPT2, CIM, IAO-localization
   Andreas Hansen         : Spin unrestricted coupled pair/coupled cluster methods
   Benjamin Helmich-Paris : MC-RPA, TRAH-SCF, COSX integrals
   Lee Huntington         : MR-EOM, pCC
   Robert Izsak           : Overlap fitted RIJCOSX, COSX-SCS-MP3, EOM
   Marcus Kettner         : VPT2
   Christian Kollmar      : KDIIS, OOCD, Brueckner-CCSD(T), CCSD density, CASPT2, CASPT2-K
   Simone Kossmann        : Meta GGA functionals, TD-DFT gradient, OOMP2, MP2 Hessian
   Martin Krupicka        : Initial AUTO-CI
   Lucas Lang             : DCDCAS
   Marvin Lechner         : AUTO-CI (C++ implementation), FIC-MRCC
   Dagmar Lenk            : GEPOL surface, SMD
   Dimitrios Liakos       : Extrapolation schemes; Compound Job, initial MDCI parallelization
   Dimitrios Manganas     : Further ROCIS development; embedding schemes
   Dimitrios Pantazis     : SARC Basis sets
   Anastasios Papadopoulos: AUTO-CI, single reference methods and gradients
   Taras Petrenko         : DFT Hessian,TD-DFT gradient, ASA, ECA, R-Raman, ABS, FL, XAS/XES, NRVS
   Peter Pinski           : DLPNO-MP2, DLPNO-MP2 Gradient
   Christoph Reimann      : Effective Core Potentials
   Marius Retegan         : Local ZFS, SOC
   Christoph Riplinger    : Optimizer, TS searches, QM/MM, DLPNO-CCSD(T), (RO)-DLPNO pert. Triples
   Tobias Risthaus        : Range-separated hybrids, TD-DFT gradient, RPA, STAB
   Michael Roemelt        : Original ROCIS implementation
   Masaaki Saitow         : Open-shell DLPNO-CCSD energy and density
   Barbara Sandhoefer     : DKH picture change effects
   Avijit Sen             : IP-ROCIS
   Kantharuban Sivalingam : CASSCF convergence, NEVPT2, FIC-MRCI
   Bernardo de Souza      : ESD, SOC TD-DFT
   Georgi Stoychev        : AutoAux, RI-MP2 NMR, DLPNO-MP2 response
   Willem Van den Heuvel  : Paramagnetic NMR
   Boris Wezisla          : Elementary symmetry handling
   Frank Wennmohs         : Technical directorship


 We gratefully acknowledge several colleagues who have allowed us to
 interface, adapt or use parts of their codes:
   Stefan Grimme, W. Hujo, H. Kruse, P. Pracht,  : VdW corrections, initial TS optimization,
                  C. Bannwarth, S. Ehlert          DFT functionals, gCP, sTDA/sTD-DF
   Ed Valeev, F. Pavosevic, A. Kumar             : LibInt (2-el integral package), F12 methods
   Garnet Chan, S. Sharma, J. Yang, R. Olivares  : DMRG
   Ulf Ekstrom                                   : XCFun DFT Library
   Mihaly Kallay                                 : mrcc  (arbitrary order and MRCC methods)
   Jiri Pittner, Ondrej Demel                    : Mk-CCSD
   Frank Weinhold                                : gennbo (NPA and NBO analysis)
   Christopher J. Cramer and Donald G. Truhlar   : smd solvation model
   Lars Goerigk                                  : TD-DFT with DH, B97 family of functionals
   V. Asgeirsson, H. Jonsson                     : NEB implementation
   FAccTs GmbH                                   : IRC, NEB, NEB-TS, DLPNO-Multilevel, CI-OPT
                                                   MM, QMMM, 2- and 3-layer-ONIOM, Crystal-QMMM,
                                                   LR-CPCM, SF, NACMEs, symmetry and pop. for TD-DFT,
                                                   nearIR, NL-DFT gradient (VV10), updates on ESD,
                                                   ML-optimized integration grids
   S Lehtola, MJT Oliveira, MAL Marques          : LibXC Library
   Liviu Ungur et al                             : ANISO software


 Your calculation uses the libint2 library for the computation of 2-el integrals
 For citations please refer to: http://libint.valeyev.net

 Your ORCA version has been built with support for libXC version: 5.1.0
 For citations please refer to: https://tddft.org/programs/libxc/

 This ORCA versions uses:
   CBLAS   interface :  Fast vector & matrix operations
   LAPACKE interface :  Fast linear algebra routines
   SCALAPACK package :  Parallel linear algebra routines
   Shared memory     :  Shared parallel matrices
   BLAS/LAPACK       :  OpenBLAS 0.3.15  USE64BITINT DYNAMIC_ARCH NO_AFFINITY Zen SINGLE_THREADED
        Core in use  :  Zen
   Copyright (c) 2011-2014, The OpenBLAS Project


Your calculation utilizes the SMD solvation module
Please cite in your paper:
A.V. Marenich, C.J. Cramer, D.G. Truhlar J. Phys. Chem. B, 113, (2009), 6378 

================================================================================

cite the ECPs for Ru [Def2-ECP] as follows:
Ce-Yb(ecp-28): M. Dolg, H. Stoll, H.Preuss, J. Chem. Phys., 1989, 90, 1730-1734.
Y-Cd(ecp-28), Hf-Hg(ecp-46): D. Andrae,U. Haeussermann, M. Dolg, H. Stoll, H. Preuss, Theor. Chim. Acta, 1990, 77, 123-141.
In-Sb(ecp-28), Tl-Bi(ecp-46): B. Metz, H. Stoll, M. Dolg, J. Chem. Phys., 2000, 113, 2563-2569.
Te-Xe(ecp-28), Po-Rn(ecp-46): K. A. Peterson, D. Figgen, E. Goll, H. Stoll, M. Dolg, J. Chem. Phys., 2003, 119, 11113-11123.
Rb(ecp-28), Cs(ecp-46): T. Leininger, A. Nicklass, W. Kuechle, H. Stoll, M. Dolg, A. Bergner, Chem. Phys. Lett., 1996, 255, 274-280.
Sr(ecp-28), Ba(ecp-46): M. Kaupp, P. V. Schleyer, H. Stoll and H. Preuss, J. Chem. Phys., 1991, 94, 1360-1366.
La(ecp-46): M. Dolg, H. Stoll, A. Savin, H. Preuss, Theor. Chim. Acta, 1989, 75, 173-194.
Lu(ecp-28): X. Cao, M. Dolg, J. Chem. Phys., 2001, 115, 7348-7355.

ECP parameters for Ru [Def2-ECP] have been obtained from:
TURBOMOLE (7.0.2)

----- Orbital basis set information -----
Your calculation utilizes the basis: def2-SVP
   F. Weigend and R. Ahlrichs, Phys. Chem. Chem. Phys. 7, 3297 (2005).

----- AuxJ basis set information -----
Your calculation utilizes the auxiliary basis: def2/J
   F. Weigend, Phys. Chem. Chem. Phys. 8, 1057 (2006).

----- AuxC basis set information -----
Your calculation utilizes the auxiliary basis: def2-SVP/C
  H-La, Hf-Rn : A. Hellweg, C. Hattig, S. Hofener and W. Klopper, Theor. Chem. Acc. 117, 587 (2007).
        Ce-Lu : J. Chmela and M. E. Harding, Mol. Phys. (2018).

================================================================================
                                        WARNINGS
                       Please study these warnings very carefully!
================================================================================

INFO   : Checking CIS options ...
  ===> : (D) CORRECTION FOUND - SETTING MODE=3
  ===> : JK MODE FOUND - ACTIVATING RI-MP2 CODE
  ===> : MP2 AND CIS FOUND - CHECKING
WARNING: CIS(D) and MP2 runs must have the same orbital window
  ===> : adjusting orbital windows

WARNING: No MP2 level density has been requested!
         To caclulate MP2 level properties use
         %mp2 Density relaxed end
         or
         %mp2 Density unrelaxed end
         Otherwise for double-hybrid DFT only the energy is correct!

WARNING: The frozen-core approximation is turned on by default for 
         the MP2 part of double-hybrid DFT.

WARNING:  You are using a Range-Separated Double Hybrid functional with Doubles Correction 
          Changing Mode to RPA_AOINTS 


WARNING: CIS/ROCIS methods need fully converged wavefunctions
  ===> : Setting SCFConvForced true
         You can overwrite this default with %scf ConvForced false 


INFO   : the flag for use of the SHARK integral package has been found!

================================================================================
                                       INPUT FILE
================================================================================
NAME = Ru-PRC_2_wB2PLYP_def2SVP.inp
|  1> %maxcore 6000
|  2> %pal
|  3>  nprocs 8
|  4> end
|  5> ! RI-wB2PLYP def2-SVP def2/J def2-SVP/C RIJCOSX CPCM TIGHTSCF
|  6> 
|  7> %TDDFT 
|  8>     DCORR      1
|  9>     NROOTS    40
| 10>     TDA       FALSE
| 11> END
| 12> 
| 13> %CPCM
| 14>     SMD		TRUE
| 15>     SMDsolvent	"DMF"
| 16> END
| 17> 
| 18> * xyz 2 1
| 19> C                  -1.67762600   -2.06917600    0.26663300
| 20> C                  -2.41976900   -0.35506600   -1.10525600
| 21> C                  -3.64054900   -1.01297700   -1.38146000
| 22> C                  -3.83977500   -2.26012400   -0.78603600
| 23> C                  -2.86017500   -2.81414300    0.05348900
| 24> C                  -0.64603500   -2.57041500    1.10931800
| 25> C                   1.44308500   -2.22864100    2.05449600
| 26> C                   1.37107100   -3.45610900    2.72594600
| 27> C                   0.25377000   -4.25800100    2.57879900
| 28> C                  -0.79899200   -3.82255400    1.74914100
| 29> H                  -2.20348800    0.61917600   -1.54629500
| 30> H                  -4.75670000   -2.82685600   -0.95693900
| 31> H                   2.31664400   -1.58092100    2.16092700
| 32> H                   2.20519900   -3.76067100    3.35881600
| 33> H                   0.17640700   -5.21804400    3.09326600
| 34> C                  -0.67339700    2.70837900   -0.05312000
| 35> C                   0.28364100    2.10199200   -2.07678600
| 36> C                  -0.06962300    3.33263900   -2.64593400
| 37> C                  -0.74150200    4.27374300   -1.88863600
| 38> C                  -1.06092100    3.97552600   -0.54795300
| 39> C                  -0.98229700    2.33684100    1.28747800
| 40> C                  -0.86513200    0.71554500    2.94084800
| 41> C                  -1.52816500    1.55169900    3.84900700
| 42> C                  -1.93001300    2.81414400    3.45518900
| 43> C                  -1.66090300    3.24064700    2.13824800
| 44> H                   0.81430900    1.34564600   -2.66004600
| 45> H                   0.19565500    3.52842800   -3.68531800
| 46> H                  -1.02608800    5.23987000   -2.31036100
| 47> H                  -0.54138600   -0.28590700    3.23440100
| 48> H                  -1.72009400    1.18704000    4.85864000
| 49> H                  -2.45085000    3.48178900    4.14451300
| 50> C                   3.23412000    0.19880600   -0.22862400
| 51> C                   2.68339500    1.39646100    1.67891500
| 52> C                   4.02351900    1.75439600    1.87621500
| 53> C                   4.99043500    1.31827600    0.98984900
| 54> C                   4.60716500    0.51520700   -0.10406100
| 55> C                   2.77992400   -0.61361700   -1.30748600
| 56> C                   0.98382300   -1.63523300   -2.36009000
| 57> C                   1.82485800   -2.15757100   -3.35148700
| 58> C                   3.18147600   -1.89533500   -3.31194000
| 59> C                   3.69765300   -1.10225100   -2.26646500
| 60> H                   1.90544100    1.73094300    2.36951600
| 61> H                   6.04067700    1.58549700    1.12343700
| 62> H                  -0.09133400   -1.82982300   -2.37615000
| 63> H                   3.85546200   -2.29168000   -4.07407900
| 64> N                   2.29071800    0.63576100    0.65528400
| 65> N                   0.46103900   -1.78766600    1.26545600
| 66> N                  -0.59313200    1.09239100    1.69009600
| 67> N                  -1.47103100   -0.85747600   -0.31699100
| 68> N                  -0.01102000    1.78870800   -0.81332900
| 69> N                   1.44226000   -0.87808700   -1.36144800
| 70> Ru                  0.36080900   -0.00017200    0.18929900
| 71> C                   5.51802000    0.00759000   -1.08472300
| 72> C                   5.08178500   -0.76686700   -2.12215900
| 73> C                  -2.00317200   -4.56431000    1.51982500
| 74> C                  -2.99008000   -4.08297000    0.70778800
| 75> C                  -2.03492300    4.52072000    1.61867400
| 76> C                  -1.75019700    4.87194600    0.32958100
| 77> H                   5.78528600   -1.14774300   -2.86536700
| 78> H                   6.57648500    0.25619200   -0.98346900
| 79> H                  -3.90321000   -4.65855900    0.54243700
| 80> H                  -2.11475400   -5.53118100    2.01503300
| 81> H                  -2.04404200    5.84954600   -0.05820200
| 82> H                  -2.55962000    5.21304700    2.28029100
| 83> H                   4.28251500    2.37741300    2.73292400
| 84> H                   1.39050900   -2.76799900   -4.14390000
| 85> C                  -4.63221300   -0.36219000   -2.26657700
| 86> C                  -5.80902100   -0.94423200   -2.56200300
| 87> H                  -6.10834500   -1.92100400   -2.17663300
| 88> H                  -6.52586300   -0.44316400   -3.21675100
| 89> C                  -4.28434800    0.98137800   -2.82737800
| 90> H                  -4.09873700    1.72172300   -2.03314000
| 91> H                  -3.36834600    0.94781100   -3.43802900
| 92> H                  -5.09264700    1.36665600   -3.45976600
| 93> *
| 94> 
| 95>                          ****END OF INPUT****
================================================================================

                       ****************************
                       * Single Point Calculation *
                       ****************************

---------------------------------
CARTESIAN COORDINATES (ANGSTROEM)
---------------------------------
  C     -1.677626   -2.069176    0.266633
  C     -2.419769   -0.355066   -1.105256
  C     -3.640549   -1.012977   -1.381460
  C     -3.839775   -2.260124   -0.786036
  C     -2.860175   -2.814143    0.053489
  C     -0.646035   -2.570415    1.109318
  C      1.443085   -2.228641    2.054496
  C      1.371071   -3.456109    2.725946
  C      0.253770   -4.258001    2.578799
  C     -0.798992   -3.822554    1.749141
  H     -2.203488    0.619176   -1.546295
  H     -4.756700   -2.826856   -0.956939
  H      2.316644   -1.580921    2.160927
  H      2.205199   -3.760671    3.358816
  H      0.176407   -5.218044    3.093266
  C     -0.673397    2.708379   -0.053120
  C      0.283641    2.101992   -2.076786
  C     -0.069623    3.332639   -2.645934
  C     -0.741502    4.273743   -1.888636
  C     -1.060921    3.975526   -0.547953
  C     -0.982297    2.336841    1.287478
  C     -0.865132    0.715545    2.940848
  C     -1.528165    1.551699    3.849007
  C     -1.930013    2.814144    3.455189
  C     -1.660903    3.240647    2.138248
  H      0.814309    1.345646   -2.660046
  H      0.195655    3.528428   -3.685318
  H     -1.026088    5.239870   -2.310361
  H     -0.541386   -0.285907    3.234401
  H     -1.720094    1.187040    4.858640
  H     -2.450850    3.481789    4.144513
  C      3.234120    0.198806   -0.228624
  C      2.683395    1.396461    1.678915
  C      4.023519    1.754396    1.876215
  C      4.990435    1.318276    0.989849
  C      4.607165    0.515207   -0.104061
  C      2.779924   -0.613617   -1.307486
  C      0.983823   -1.635233   -2.360090
  C      1.824858   -2.157571   -3.351487
  C      3.181476   -1.895335   -3.311940
  C      3.697653   -1.102251   -2.266465
  H      1.905441    1.730943    2.369516
  H      6.040677    1.585497    1.123437
  H     -0.091334   -1.829823   -2.376150
  H      3.855462   -2.291680   -4.074079
  N      2.290718    0.635761    0.655284
  N      0.461039   -1.787666    1.265456
  N     -0.593132    1.092391    1.690096
  N     -1.471031   -0.857476   -0.316991
  N     -0.011020    1.788708   -0.813329
  N      1.442260   -0.878087   -1.361448
  Ru     0.360809   -0.000172    0.189299
  C      5.518020    0.007590   -1.084723
  C      5.081785   -0.766867   -2.122159
  C     -2.003172   -4.564310    1.519825
  C     -2.990080   -4.082970    0.707788
  C     -2.034923    4.520720    1.618674
  C     -1.750197    4.871946    0.329581
  H      5.785286   -1.147743   -2.865367
  H      6.576485    0.256192   -0.983469
  H     -3.903210   -4.658559    0.542437
  H     -2.114754   -5.531181    2.015033
  H     -2.044042    5.849546   -0.058202
  H     -2.559620    5.213047    2.280291
  H      4.282515    2.377413    2.732924
  H      1.390509   -2.767999   -4.143900
  C     -4.632213   -0.362190   -2.266577
  C     -5.809021   -0.944232   -2.562003
  H     -6.108345   -1.921004   -2.176633
  H     -6.525863   -0.443164   -3.216751
  C     -4.284348    0.981378   -2.827378
  H     -4.098737    1.721723   -2.033140
  H     -3.368346    0.947811   -3.438029
  H     -5.092647    1.366656   -3.459766

----------------------------
CARTESIAN COORDINATES (A.U.)
----------------------------
  NO LB      ZA    FRAG     MASS         X           Y           Z
   0 C     6.0000    0    12.011   -3.170254   -3.910176    0.503863
   1 C     6.0000    0    12.011   -4.572701   -0.670977   -2.088631
   2 C     6.0000    0    12.011   -6.879641   -1.914249   -2.610581
   3 C     6.0000    0    12.011   -7.256123   -4.271015   -1.485393
   4 C     6.0000    0    12.011   -5.404947   -5.317960    0.101080
   5 C     6.0000    0    12.011   -1.220829   -4.857380    2.096307
   6 C     6.0000    0    12.011    2.727035   -4.211521    3.882435
   7 C     6.0000    0    12.011    2.590949   -6.531099    5.151291
   8 C     6.0000    0    12.011    0.479556   -8.046456    4.873224
   9 C     6.0000    0    12.011   -1.509876   -7.223580    3.305397
  10 H     1.0000    0     1.008   -4.163989    1.170073   -2.922074
  11 H     1.0000    0     1.008   -8.988860   -5.341984   -1.808353
  12 H     1.0000    0     1.008    4.377823   -2.987508    4.083560
  13 H     1.0000    0     1.008    4.167222   -7.106638    6.347242
  14 H     1.0000    0     1.008    0.333361   -9.860674    5.845426
  15 C     6.0000    0    12.011   -1.272536    5.118095   -0.100382
  16 C     6.0000    0    12.011    0.536004    3.972189   -3.924557
  17 C     6.0000    0    12.011   -0.131568    6.297775   -5.000091
  18 C     6.0000    0    12.011   -1.401236    8.076204   -3.569005
  19 C     6.0000    0    12.011   -2.004850    7.512655   -1.035481
  20 C     6.0000    0    12.011   -1.856272    4.415990    2.432981
  21 C     6.0000    0    12.011   -1.634863    1.352184    5.557397
  22 C     6.0000    0    12.011   -2.887813    2.932286    7.273569
  23 C     6.0000    0    12.011   -3.647196    5.317961    6.529361
  24 C     6.0000    0    12.011   -3.138652    6.123935    4.040703
  25 H     1.0000    0     1.008    1.538821    2.542902   -5.026758
  26 H     1.0000    0     1.008    0.369734    6.667763   -6.964242
  27 H     1.0000    0     1.008   -1.939025    9.901919   -4.365950
  28 H     1.0000    0     1.008   -1.023071   -0.540286    6.112132
  29 H     1.0000    0     1.008   -3.250507    2.243181    9.181499
  30 H     1.0000    0     1.008   -4.631435    6.579628    7.831995
  31 C     6.0000    0    12.011    6.111601    0.375689   -0.432037
  32 C     6.0000    0    12.011    5.070882    2.638929    3.172690
  33 C     6.0000    0    12.011    7.603349    3.315328    3.545533
  34 C     6.0000    0    12.011    9.430555    2.491181    1.870544
  35 C     6.0000    0    12.011    8.706280    0.973600   -0.196647
  36 C     6.0000    0    12.011    5.253295   -1.159568   -2.470790
  37 C     6.0000    0    12.011    1.859156   -3.090143   -4.459924
  38 C     6.0000    0    12.011    3.448482   -4.077218   -6.333393
  39 C     6.0000    0    12.011    6.012118   -3.581664   -6.258660
  40 C     6.0000    0    12.011    6.987552   -2.082953   -4.282998
  41 H     1.0000    0     1.008    3.600762    3.271008    4.477736
  42 H     1.0000    0     1.008   11.415225    2.996155    2.122988
  43 H     1.0000    0     1.008   -0.172596   -3.457864   -4.490273
  44 H     1.0000    0     1.008    7.285767   -4.330648   -7.698894
  45 N     7.0000    0    14.007    4.328830    1.201414    1.238307
  46 N     7.0000    0    14.007    0.871237   -3.378199    2.391365
  47 N     7.0000    0    14.007   -1.120857    2.064320    3.193819
  48 N     7.0000    0    14.007   -2.779846   -1.620395   -0.599026
  49 N     7.0000    0    14.007   -0.020825    3.380168   -1.536969
  50 N     7.0000    0    14.007    2.725476   -1.659344   -2.572764
  51 Ru   16.0000*   0   101.070    0.681830   -0.000325    0.357723
  52 C     6.0000    0    12.011   10.427547    0.014343   -2.049829
  53 C     6.0000    0    12.011    9.603182   -1.449169   -4.010299
  54 C     6.0000    0    12.011   -3.785446   -8.625296    2.872053
  55 C     6.0000    0    12.011   -5.650432   -7.715695    1.337525
  56 C     6.0000    0    12.011   -3.845447    8.542923    3.058851
  57 C     6.0000    0    12.011   -3.307393    9.206644    0.622818
  58 H     1.0000    0     1.008   10.932606   -2.168920   -5.414759
  59 H     1.0000    0     1.008   12.427756    0.484133   -1.858487
  60 H     1.0000    0     1.008   -7.375998   -8.803401    1.025057
  61 H     1.0000    0     1.008   -3.996306  -10.452417    3.807861
  62 H     1.0000    0     1.008   -3.862680   11.054040   -0.109986
  63 H     1.0000    0     1.008   -4.836981    9.851231    4.309125
  64 H     1.0000    0     1.008    8.092781    4.492659    5.164478
  65 H     1.0000    0     1.008    2.627681   -5.230760   -7.830836
  66 C     6.0000    0    12.011   -8.753614   -0.684440   -4.283210
  67 C     6.0000    0    12.011  -10.977459   -1.784340   -4.841484
  68 H     1.0000    0     1.008  -11.543099   -3.630171   -4.113240
  69 H     1.0000    0     1.008  -12.332094   -0.837459   -6.078778
  70 C     6.0000    0    12.011   -8.096244    1.854536   -5.342970
  71 H     1.0000    0     1.008   -7.745490    3.253585   -3.842078
  72 H     1.0000    0     1.008   -6.365251    1.791103   -6.496933
  73 H     1.0000    0     1.008   -9.623708    2.582606   -6.538010
* core charge reduced due to ECP

--------------------------------
INTERNAL COORDINATES (ANGSTROEM)
--------------------------------
 C      0   0   0     0.000000000000     0.00000000     0.00000000
 C      1   0   0     2.317548004437     0.00000000     0.00000000
 C      2   1   0     1.414015325920    92.74923135     0.00000000
 C      3   2   1     1.396279477204   117.09525529   359.68700230
 C      4   3   2     1.404049656524   120.52216088     0.37070214
 C      1   2   3     1.423214156628   147.46841042   180.42545254
 C      6   1   2     2.318316909562   147.42111914     0.22254936
 C      7   6   1     1.400967098015    91.14104304   179.29531090
 C      8   7   6     1.383128534835   119.90094751     0.00000000
 C      9   8   7     1.409345349947   119.13821751     0.04560973
 H      2   1   3     1.091073024617   146.74413636   180.11454438
 H      4   3   2     1.091395643595   121.12511811   180.20541753
 H      7   6   1     1.092691211021   147.94286947   359.56987729
 H      8   7   6     1.090436595648   118.91790085   180.00377034
 H      9   8   7     1.091945003060   121.12064140   180.03926934
 C     11   2   1     2.989233885817   121.57535374   324.54139976
 C     16  11   2     2.319235004645    65.96018789   122.17786492
 C     17  16  11     1.401148435466    91.18899035   108.54203246
 C     18  17  16     1.382243969153   119.86817180     0.14656506
 C     19  18  17     1.410103819986   119.14489980     0.00000000
 C     16  11   2     1.425013225570   100.18027309   333.22062438
 C     21  16  11     2.318611807470   147.37356457    61.21816906
 C     22  21  16     1.401256236413    91.20254301   179.56550587
 C     23  22  21     1.382151153186   119.86391739     0.20180824
 C     24  23  22     1.410198070694   119.13400795   359.88005914
 H     17  16  11     1.092639018862   147.90642084   288.84450987
 H     18  17  16     1.090424160252   118.91782950   180.04970834
 H     19  18  17     1.091898597467   121.16534808   179.93582890
 H     22  21  16     1.092653167583   147.93415818   359.76816512
 H     23  22  21     1.090491504786   118.93289632   179.99870390
 H     24  23  22     1.091873895452   121.15214790   179.80693376
 C     13   7   6     3.117554231558   119.93495636   327.07108084
 C     32  13   7     2.318702344237    66.07138084   120.23191323
 C     33  32  13     1.401062842845    91.18175524   111.01793635
 C     34  33  32     1.382306728412   119.87898734     0.04977530
 C     35  34  33     1.410125809905   119.14278032     0.00000000
 C     32  13   7     1.424874854992    99.26767106   330.84687821
 C     37  32  13     2.318976764539   147.32624103    59.91574273
 C     38  37  32     1.401087031229    91.17441985   179.62327924
 C     39  38  37     1.382296669615   119.87783635     0.00000000
 C     40  39  38     1.410120172897   119.15412597     0.05306379
 H     33  32  13     1.092712393835   147.90211257   291.19476451
 H     35  34  33     1.091907081738   121.14069137   179.95426840
 H     38  37  32     1.092742314706   147.90627168   359.86371029
 H     40  39  38     1.091880186899   121.12927986   180.02209112
 N     33  32  13     1.334421275494    31.17101195   291.20247980
 N      7   6   1     1.334712485272    31.20216978   359.53419286
 N     22  21  16     1.334307862984    31.17176112   359.76329543
 N      2   1   3     1.331871356764    30.96755589   180.24414953
 N     17  16  11     1.334651849894    31.15797407   288.86671057
 N     38  37  32     1.334436357587    31.15928528   359.91162590
 Ru    50  17  16     2.084133240948   128.13401245   177.90444282
 C     36  35  34     1.431443260475   124.08785856   179.93670254
 C     53  36  35     1.366147164170   121.20413643   179.97850746
 C     10   9   8     1.432772579230   124.19912520   180.01282239
 C     55  10   9     1.365679202973   121.33578621   179.68625935
 C     25  24  23     1.431235475806   124.03142118   179.67403996
 C     57  25  24     1.366085414899   121.20136101   180.31379213
 H     54  53  36     1.091942450700   120.58868667   179.92047068
 H     53  36  35     1.091972290466   118.19896844   359.94482096
 H     56  55  10     1.091993611255   120.56663442   180.04901736
 H     55  10   9     1.092026115360   118.14281070   359.77331374
 H     58  57  25     1.091980906021   120.61002049   179.72411827
 H     57  25  24     1.091952687357   118.20812751     0.10755995
 H     34  33  32     1.090495034829   118.93131910   179.98518643
 H     39  38  37     1.090504360172   118.93169566   179.96350910
 C      3   2   1     1.479984226927   119.38718594   179.50112316
 C     67   3   2     1.345706684276   121.80680993   179.99659367
 H     68  67   3     1.091873817737   123.31020211   359.92803829
 H     68  67   3     1.092532167532   120.46270813   179.89613270
 C     67   3   2     1.496891041609   117.58282303   359.82843386
 H     71  67   3     1.101533550551   111.85699268   300.77911853
 H     71  67   3     1.101399587477   111.93983888    59.91883403
 H     71  67   3     1.096221233707   111.11440123   180.38224488

---------------------------
INTERNAL COORDINATES (A.U.)
---------------------------
 C      0   0   0     0.000000000000     0.00000000     0.00000000
 C      1   0   0     4.379531030602     0.00000000     0.00000000
 C      2   1   0     2.672101715156    92.74923135     0.00000000
 C      3   2   1     2.638585818330   117.09525529   359.68700230
 C      4   3   2     2.653269329257   120.52216088     0.37070214
 C      1   2   3     2.689484985947   147.46841042   180.42545254
 C      6   1   2     4.380984050710   147.42111914     0.22254936
 C      7   6   1     2.647444137882    91.14104304   179.29531090
 C      8   7   6     2.613734138849   119.90094751     0.00000000
 C      9   8   7     2.663276739515   119.13821751     0.04560973
 H      2   1   3     2.061829208634   146.74413636   180.11454438
 H      4   3   2     2.062438870149   121.12511811   180.20541753
 H      7   6   1     2.064887137772   147.94286947   359.56987729
 H      8   7   6     2.060626532180   118.91790085   180.00377034
 H      9   8   7     2.063477009087   121.12064140   180.03926934
 C     11   2   1     5.648833394431   121.57535374   324.54139976
 C     16  11   2     4.382718998982    65.96018789   122.17786492
 C     17  16  11     2.647786816003    91.18899035   108.54203246
 C     18  17  16     2.612062551964   119.86817180     0.14656506
 C     19  18  17     2.664710040170   119.14489980     0.00000000
 C     16  11   2     2.692884733542   100.18027309   333.22062438
 C     21  16  11     4.381541326995   147.37356457    61.21816906
 C     22  21  16     2.647990530270    91.20254301   179.56550587
 C     23  22  21     2.611887155205   119.86391739     0.20180824
 C     24  23  22     2.664888148196   119.13400795   359.88005914
 H     17  16  11     2.064788508886   147.90642084   288.84450987
 H     18  17  16     2.060603032687   118.91782950   180.04970834
 H     19  18  17     2.063389315225   121.16534808   179.93582890
 H     22  21  16     2.064815246093   147.93415818   359.76816512
 H     23  22  21     2.060730295414   118.93289632   179.99870390
 H     24  23  22     2.063342635182   121.15214790   179.80693376
 C     13   7   6     5.891323705292   119.93495636   327.07108084
 C     32  13   7     4.381712416689    66.07138084   120.23191323
 C     33  32  13     2.647625069390    91.18175524   111.01793635
 C     34  33  32     2.612181149775   119.87898734     0.04977530
 C     35  34  33     2.664751595095   119.14278032     0.00000000
 C     32  13   7     2.692623251046    99.26767106   330.84687821
 C     37  32  13     4.382230995906   147.32624103    59.91574273
 C     38  37  32     2.647670778812    91.17441985   179.62327924
 C     39  38  37     2.612162141404   119.87783635     0.00000000
 C     40  39  38     2.664740942692   119.15412597     0.05306379
 H     33  32  13     2.064927167490   147.90211257   291.19476451
 H     35  34  33     2.063405348173   121.14069137   179.95426840
 H     38  37  32     2.064983709742   147.90627168   359.86371029
 H     40  39  38     2.063354524293   121.12927986   180.02209112
 N     33  32  13     2.521690757961    31.17101195   291.20247980
 N      7   6   1     2.522241064690    31.20216978   359.53419286
 N     22  21  16     2.521476439377    31.17176112   359.76329543
 N      2   1   3     2.516872109899    30.96755589   180.24414953
 N     17  16  11     2.522126480431    31.15797407   288.86671057
 N     38  37  32     2.521719258986    31.15928528   359.91162590
 Ru    50  17  16     3.938441051994   128.13401245   177.90444282
 C     36  35  34     2.705035738544   124.08785856   179.93670254
 C     53  36  35     2.581643998915   121.20413643   179.97850746
 C     10   9   8     2.707547786936   124.19912520   180.01282239
 C     55  10   9     2.580759680411   121.33578621   179.68625935
 C     25  24  23     2.704643082425   124.03142118   179.67403996
 C     57  25  24     2.581527309704   121.20136101   180.31379213
 H     54  53  36     2.063472185826   120.58868667   179.92047068
 H     53  36  35     2.063528574811   118.19896844   359.94482096
 H     56  55  10     2.063568865264   120.56663442   180.04901736
 H     55  10   9     2.063630289121   118.14281070   359.77331374
 H     58  57  25     2.063544855851   120.61002049   179.72411827
 H     57  25  24     2.063491530305   118.20812751     0.10755995
 H     34  33  32     2.060736966227   118.93131910   179.98518643
 H     39  38  37     2.060754588572   118.93169566   179.96350910
 C      3   2   1     2.796764871416   119.38718594   179.50112316
 C     67   3   2     2.543017089868   121.80680993   179.99659367
 H     68  67   3     2.063342488322   123.31020211   359.92803829
 H     68  67   3     2.064586589135   120.46270813   179.89613270
 C     67   3   2     2.828714120962   117.58282303   359.82843386
 H     71  67   3     2.081596737868   111.85699268   300.77911853
 H     71  67   3     2.081343584345   111.93983888    59.91883403
 H     71  67   3     2.071557913895   111.11440123   180.38224488

---------------------
BASIS SET INFORMATION
---------------------
There are 4 groups of distinct atoms

 Group   1 Type C   : 7s4p1d contracted to 3s2p1d pattern {511/31/1}
 Group   2 Type H   : 4s1p contracted to 2s1p pattern {31/1}
 Group   3 Type N   : 7s4p1d contracted to 3s2p1d pattern {511/31/1}
 Group   4 Type Ru  : 7s6p5d1f contracted to 5s3p2d1f pattern {31111/411/41/1}

Atom   0C    basis set group =>   1
Atom   1C    basis set group =>   1
Atom   2C    basis set group =>   1
Atom   3C    basis set group =>   1
Atom   4C    basis set group =>   1
Atom   5C    basis set group =>   1
Atom   6C    basis set group =>   1
Atom   7C    basis set group =>   1
Atom   8C    basis set group =>   1
Atom   9C    basis set group =>   1
Atom  10H    basis set group =>   2
Atom  11H    basis set group =>   2
Atom  12H    basis set group =>   2
Atom  13H    basis set group =>   2
Atom  14H    basis set group =>   2
Atom  15C    basis set group =>   1
Atom  16C    basis set group =>   1
Atom  17C    basis set group =>   1
Atom  18C    basis set group =>   1
Atom  19C    basis set group =>   1
Atom  20C    basis set group =>   1
Atom  21C    basis set group =>   1
Atom  22C    basis set group =>   1
Atom  23C    basis set group =>   1
Atom  24C    basis set group =>   1
Atom  25H    basis set group =>   2
Atom  26H    basis set group =>   2
Atom  27H    basis set group =>   2
Atom  28H    basis set group =>   2
Atom  29H    basis set group =>   2
Atom  30H    basis set group =>   2
Atom  31C    basis set group =>   1
Atom  32C    basis set group =>   1
Atom  33C    basis set group =>   1
Atom  34C    basis set group =>   1
Atom  35C    basis set group =>   1
Atom  36C    basis set group =>   1
Atom  37C    basis set group =>   1
Atom  38C    basis set group =>   1
Atom  39C    basis set group =>   1
Atom  40C    basis set group =>   1
Atom  41H    basis set group =>   2
Atom  42H    basis set group =>   2
Atom  43H    basis set group =>   2
Atom  44H    basis set group =>   2
Atom  45N    basis set group =>   3
Atom  46N    basis set group =>   3
Atom  47N    basis set group =>   3
Atom  48N    basis set group =>   3
Atom  49N    basis set group =>   3
Atom  50N    basis set group =>   3
Atom  51Ru   basis set group =>   4
Atom  52C    basis set group =>   1
Atom  53C    basis set group =>   1
Atom  54C    basis set group =>   1
Atom  55C    basis set group =>   1
Atom  56C    basis set group =>   1
Atom  57C    basis set group =>   1
Atom  58H    basis set group =>   2
Atom  59H    basis set group =>   2
Atom  60H    basis set group =>   2
Atom  61H    basis set group =>   2
Atom  62H    basis set group =>   2
Atom  63H    basis set group =>   2
Atom  64H    basis set group =>   2
Atom  65H    basis set group =>   2
Atom  66C    basis set group =>   1
Atom  67C    basis set group =>   1
Atom  68H    basis set group =>   2
Atom  69H    basis set group =>   2
Atom  70C    basis set group =>   1
Atom  71H    basis set group =>   2
Atom  72H    basis set group =>   2
Atom  73H    basis set group =>   2
---------------------------------
AUXILIARY/J BASIS SET INFORMATION
---------------------------------
There are 4 groups of distinct atoms

 Group   1 Type C   : 12s5p4d2f1g contracted to 6s4p3d1f1g pattern {711111/2111/211/2/1}
 Group   2 Type H   : 5s2p1d contracted to 3s1p1d pattern {311/2/1}
 Group   3 Type N   : 12s5p4d2f1g contracted to 6s4p3d1f1g pattern {711111/2111/211/2/1}
 Group   4 Type Ru  : 11s5p5d3f3g contracted to 8s5p5d2f3g pattern {41111111/11111/11111/21/111}

Atom   0C    basis set group =>   1
Atom   1C    basis set group =>   1
Atom   2C    basis set group =>   1
Atom   3C    basis set group =>   1
Atom   4C    basis set group =>   1
Atom   5C    basis set group =>   1
Atom   6C    basis set group =>   1
Atom   7C    basis set group =>   1
Atom   8C    basis set group =>   1
Atom   9C    basis set group =>   1
Atom  10H    basis set group =>   2
Atom  11H    basis set group =>   2
Atom  12H    basis set group =>   2
Atom  13H    basis set group =>   2
Atom  14H    basis set group =>   2
Atom  15C    basis set group =>   1
Atom  16C    basis set group =>   1
Atom  17C    basis set group =>   1
Atom  18C    basis set group =>   1
Atom  19C    basis set group =>   1
Atom  20C    basis set group =>   1
Atom  21C    basis set group =>   1
Atom  22C    basis set group =>   1
Atom  23C    basis set group =>   1
Atom  24C    basis set group =>   1
Atom  25H    basis set group =>   2
Atom  26H    basis set group =>   2
Atom  27H    basis set group =>   2
Atom  28H    basis set group =>   2
Atom  29H    basis set group =>   2
Atom  30H    basis set group =>   2
Atom  31C    basis set group =>   1
Atom  32C    basis set group =>   1
Atom  33C    basis set group =>   1
Atom  34C    basis set group =>   1
Atom  35C    basis set group =>   1
Atom  36C    basis set group =>   1
Atom  37C    basis set group =>   1
Atom  38C    basis set group =>   1
Atom  39C    basis set group =>   1
Atom  40C    basis set group =>   1
Atom  41H    basis set group =>   2
Atom  42H    basis set group =>   2
Atom  43H    basis set group =>   2
Atom  44H    basis set group =>   2
Atom  45N    basis set group =>   3
Atom  46N    basis set group =>   3
Atom  47N    basis set group =>   3
Atom  48N    basis set group =>   3
Atom  49N    basis set group =>   3
Atom  50N    basis set group =>   3
Atom  51Ru   basis set group =>   4
Atom  52C    basis set group =>   1
Atom  53C    basis set group =>   1
Atom  54C    basis set group =>   1
Atom  55C    basis set group =>   1
Atom  56C    basis set group =>   1
Atom  57C    basis set group =>   1
Atom  58H    basis set group =>   2
Atom  59H    basis set group =>   2
Atom  60H    basis set group =>   2
Atom  61H    basis set group =>   2
Atom  62H    basis set group =>   2
Atom  63H    basis set group =>   2
Atom  64H    basis set group =>   2
Atom  65H    basis set group =>   2
Atom  66C    basis set group =>   1
Atom  67C    basis set group =>   1
Atom  68H    basis set group =>   2
Atom  69H    basis set group =>   2
Atom  70C    basis set group =>   1
Atom  71H    basis set group =>   2
Atom  72H    basis set group =>   2
Atom  73H    basis set group =>   2
---------------------------------
AUXILIARY/C BASIS SET INFORMATION
---------------------------------
There are 4 groups of distinct atoms

 Group   1 Type C   : 8s6p5d3f contracted to 6s5p4d1f pattern {311111/21111/2111/3}
 Group   2 Type H   : 4s3p2d contracted to 3s2p1d pattern {211/21/2}
 Group   3 Type N   : 8s6p5d3f contracted to 6s5p4d1f pattern {311111/21111/2111/3}
 Group   4 Type Ru  : 8s7p6d5f3g1h contracted to 8s7p6d5f3g1h pattern {11111111/1111111/111111/11111/111/1}

Atom   0C    basis set group =>   1
Atom   1C    basis set group =>   1
Atom   2C    basis set group =>   1
Atom   3C    basis set group =>   1
Atom   4C    basis set group =>   1
Atom   5C    basis set group =>   1
Atom   6C    basis set group =>   1
Atom   7C    basis set group =>   1
Atom   8C    basis set group =>   1
Atom   9C    basis set group =>   1
Atom  10H    basis set group =>   2
Atom  11H    basis set group =>   2
Atom  12H    basis set group =>   2
Atom  13H    basis set group =>   2
Atom  14H    basis set group =>   2
Atom  15C    basis set group =>   1
Atom  16C    basis set group =>   1
Atom  17C    basis set group =>   1
Atom  18C    basis set group =>   1
Atom  19C    basis set group =>   1
Atom  20C    basis set group =>   1
Atom  21C    basis set group =>   1
Atom  22C    basis set group =>   1
Atom  23C    basis set group =>   1
Atom  24C    basis set group =>   1
Atom  25H    basis set group =>   2
Atom  26H    basis set group =>   2
Atom  27H    basis set group =>   2
Atom  28H    basis set group =>   2
Atom  29H    basis set group =>   2
Atom  30H    basis set group =>   2
Atom  31C    basis set group =>   1
Atom  32C    basis set group =>   1
Atom  33C    basis set group =>   1
Atom  34C    basis set group =>   1
Atom  35C    basis set group =>   1
Atom  36C    basis set group =>   1
Atom  37C    basis set group =>   1
Atom  38C    basis set group =>   1
Atom  39C    basis set group =>   1
Atom  40C    basis set group =>   1
Atom  41H    basis set group =>   2
Atom  42H    basis set group =>   2
Atom  43H    basis set group =>   2
Atom  44H    basis set group =>   2
Atom  45N    basis set group =>   3
Atom  46N    basis set group =>   3
Atom  47N    basis set group =>   3
Atom  48N    basis set group =>   3
Atom  49N    basis set group =>   3
Atom  50N    basis set group =>   3
Atom  51Ru   basis set group =>   4
Atom  52C    basis set group =>   1
Atom  53C    basis set group =>   1
Atom  54C    basis set group =>   1
Atom  55C    basis set group =>   1
Atom  56C    basis set group =>   1
Atom  57C    basis set group =>   1
Atom  58H    basis set group =>   2
Atom  59H    basis set group =>   2
Atom  60H    basis set group =>   2
Atom  61H    basis set group =>   2
Atom  62H    basis set group =>   2
Atom  63H    basis set group =>   2
Atom  64H    basis set group =>   2
Atom  65H    basis set group =>   2
Atom  66C    basis set group =>   1
Atom  67C    basis set group =>   1
Atom  68H    basis set group =>   2
Atom  69H    basis set group =>   2
Atom  70C    basis set group =>   1
Atom  71H    basis set group =>   2
Atom  72H    basis set group =>   2
Atom  73H    basis set group =>   2
-------------------------
ECP PARAMETER INFORMATION
-------------------------

 Group 1, Type Ru ECP Def2-ECP (replacing 28 core electrons, lmax=3)

Atom  51Ru   ECP group =>   1



           ************************************************************
           *        Program running with 8 parallel MPI-processes     *
           *              working on a common directory               *
           ************************************************************
------------------------------------------------------------------------------
                           ORCA GTO INTEGRAL CALCULATION
                           -- RI-GTO INTEGRALS CHOSEN --
------------------------------------------------------------------------------
------------------------------------------------------------------------------
                   ___                                                        
                  /   \      - P O W E R E D   B Y -                         
                 /     \                                                     
                 |  |  |   _    _      __       _____    __    __             
                 |  |  |  | |  | |    /  \     |  _  \  |  |  /  |          
                  \  \/   | |  | |   /    \    | | | |  |  | /  /          
                 / \  \   | |__| |  /  /\  \   | |_| |  |  |/  /          
                |  |  |   |  __  | /  /__\  \  |    /   |      \           
                |  |  |   | |  | | |   __   |  |    \   |  |\   \          
                \     /   | |  | | |  |  |  |  | |\  \  |  | \   \       
                 \___/    |_|  |_| |__|  |__|  |_| \__\ |__|  \__/        
                                                                              
                      - O R C A' S   B I G   F R I E N D -                    
                                      &                                       
                       - I N T E G R A L  F E E D E R -                       
                                                                              
 v1 FN, 2020, v2 2021                                                         
------------------------------------------------------------------------------


Reading SHARK input file Ru-PRC_2_wB2PLYP_def2SVP.SHARKINP.tmp ... ok
----------------------
SHARK INTEGRAL PACKAGE
----------------------

Number of atoms                             ...     74
Number of basis functions                   ...    801
Number of shells                            ...    365
Maximum angular momentum                    ...      3
Integral batch strategy                     ... SHARK/LIBINT Hybrid
RI-J (if used) integral strategy            ... SPLIT-RIJ (Revised 2003 algorithm where possible)
Printlevel                                  ...      1
Contraction scheme used                     ... SEGMENTED contraction
Coulomb Range Separation                    ... NOT USED
Exchange Range Separation                   ... Long Range
   Mu parameter                             ...  0.300000
   Scaling (regular/separated)              ...  0.530000  0.470000
Finite Nucleus Model                        ... NOT USED
Auxiliary Coulomb fitting basis             ... AVAILABLE
   # of basis functions in Aux-J            ...   2602
   # of shells in Aux-J                     ...    838
   Maximum angular momentum in Aux-J        ...      4
Auxiliary J/K fitting basis                 ... NOT available
Auxiliary Correlation fitting basis         ... AVAILABLE
   # of basis functions in Aux-C            ...   2684
   # of shells in Aux-C                     ...    918
   Maximum angular momentum in Aux-C        ...      5
Auxiliary 'external' fitting basis          ... NOT available
Integral threshold                          ...     2.500000e-11
Primitive cut-off                           ...     2.500000e-12
Primitive pair pre-selection threshold      ...     2.500000e-12

Calculating pre-screening integrals         ... done (  0.1 sec) Dimension = 365
Organizing shell pair data                  ... done (  0.2 sec)
Shell pair information
Total number of shell pairs                 ...     66795
Shell pairs after pre-screening             ...     42372
Total number of primitive shell pairs       ...    245334
Primitive shell pairs kept                  ...     91097
          la=0 lb=0:  12482 shell pairs
          la=1 lb=0:  15707 shell pairs
          la=1 lb=1:   5016 shell pairs
          la=2 lb=0:   5104 shell pairs
          la=2 lb=1:   3334 shell pairs
          la=2 lb=2:    457 shell pairs
          la=3 lb=0:    149 shell pairs
          la=3 lb=1:     90 shell pairs
          la=3 lb=2:     32 shell pairs
          la=3 lb=3:      1 shell pairs

Calculating one electron integrals          ... done (  0.1 sec)
Calculating ECP integrals                   ... done (  1.0 sec)
Calculating RI/J V-Matrix + Cholesky decomp.... done (  0.3 sec)
Calculating RI/C V-Matrix + Cholesky decomp.... done (  0.3 sec)
Calculating Nuclear repulsion               ... done (  0.0 sec) ENN=   6024.905487618291 Eh

SHARK setup successfully completed in   2.2 seconds

Maximum memory used throughout the entire GTOINT-calculation: 75.1 MB


           ************************************************************
           *        Program running with 8 parallel MPI-processes     *
           *              working on a common directory               *
           ************************************************************
-------------------------------------------------------------------------------
                                 ORCA SCF
-------------------------------------------------------------------------------

------------
SCF SETTINGS
------------
Hamiltonian:
 Density Functional     Method          .... DFT(GTOs)
 Exchange Functional    Exchange        .... WB88
 Correlation Functional Correlation     .... LYP
 LDA part of GGA corr.  LDAOpt          .... VWN-3
 Gradients option       PostSCFGGA      .... off
 Hybrid DFT is turned on
   Fraction HF Exchange ScalHFX         ....  0.530000
   Scaling of DF-GGA-X  ScalDFX         ....  0.000000
   Scaling of DF-GGA-C  ScalDFC         ....  0.730000
   Scaling of DF-LDA-C  ScalLDAC        ....  0.730000
   Perturbative correction              ....  0.270000
   Density functional embedding theory  .... OFF
 Long-range corrected/Screened/Range-Separated Hybrid DFT is turned on
   Amount of maximum screened exact exchange              ....  0.470000
   Range separation parameter mu (erf(mu*r12)/r12)        ....  0.300000
 RI-approximation to the Coulomb term is turned on
   Number of AuxJ basis functions       .... 2602
   RIJ-COSX (HFX calculated with COS-X)).... on


General Settings:
 Integral files         IntName         .... Ru-PRC_2_wB2PLYP_def2SVP
 Hartree-Fock type      HFTyp           .... RHF
 Total Charge           Charge          ....    2
 Multiplicity           Mult            ....    1
 Number of Electrons    NEL             ....  318
 Basis Dimension        Dim             ....  801
 Nuclear Repulsion      ENuc            ....   6024.9054876183 Eh

Convergence Acceleration:
 DIIS                   CNVDIIS         .... on
   Start iteration      DIISMaxIt       ....    12
   Startup error        DIISStart       ....  0.200000
   # of expansion vecs  DIISMaxEq       ....     5
   Bias factor          DIISBfac        ....   1.050
   Max. coefficient     DIISMaxC        ....  10.000
 Trust-Rad. Augm. Hess. CNVTRAH         .... auto
   Auto Start mean grad. ratio tolernc. ....  1.125000
   Auto Start start iteration           ....    20
   Auto Start num. interpolation iter.  ....    10
   Max. Number of Micro iterations      ....    16
   Max. Number of Macro iterations      .... Maxiter - #DIIS iter
   Number of Davidson start vectors     ....     2
   Converg. threshold I  (grad. norm)   ....   1.000e-05
   Converg. threshold II (energy diff.) ....   1.000e-08
   Grad. Scal. Fac. for Micro threshold ....   0.100
   Minimum threshold for Micro iter.    ....   0.010
   NR start threshold (gradient norm)   ....   0.001
   Initial trust radius                 ....   0.400
   Minimum AH scaling param. (alpha)    ....   1.000
   Maximum AH scaling param. (alpha)    .... 1000.000
   Orbital update algorithm             .... Taylor
   White noise on init. David. guess    .... on
   Maximum white noise                  ....   0.010
   Quad. conv. algorithm                .... NR
 SOSCF                  CNVSOSCF        .... off
 Level Shifting         CNVShift        .... on
   Level shift para.    LevelShift      ....    0.2500
   Turn off err/grad.   ShiftErr        ....    0.0010
 Zerner damping         CNVZerner       .... off
 Static damping         CNVDamp         .... on
   Fraction old density DampFac         ....    0.7000
   Max. Damping (<1)    DampMax         ....    0.9800
   Min. Damping (>=0)   DampMin         ....    0.0000
   Turn off err/grad.   DampErr         ....    0.1000
 Fernandez-Rico         CNVRico         .... off

SCF Procedure:
 Maximum # iterations   MaxIter         ....   125
 SCF integral mode      SCFMode         .... Direct
   Integral package                     .... SHARK and LIBINT hybrid scheme
 Reset frequency        DirectResetFreq ....    20
 Integral Threshold     Thresh          ....  2.500e-11 Eh
 Primitive CutOff       TCut            ....  2.500e-12 Eh

Convergence Tolerance:
 Convergence Check Mode ConvCheckMode   .... Total+1el-Energy
 Convergence forced     ConvForced      .... 1
 Energy Change          TolE            ....  1.000e-08 Eh
 1-El. energy change                    ....  1.000e-05 Eh
 DIIS Error             TolErr          ....  5.000e-07


Diagonalization of the overlap matrix:
Smallest eigenvalue                        ... 1.491e-04
Time for diagonalization                   ...    0.106 sec
Threshold for overlap eigenvalues          ... 1.000e-08
Number of eigenvalues below threshold      ... 0
Time for construction of square roots      ...    0.056 sec
Total time needed                          ...    0.165 sec

Time for model grid setup =    0.708 sec

------------------------------
INITIAL GUESS: MODEL POTENTIAL
------------------------------
Loading Hartree-Fock densities                     ... done
  calling /project/ligandum/orca_504_openmpi411/orca Ru-PRC_2_wB2PLYP_def2SVP_atom44.inp > Ru-PRC_2_wB2PLYP_def2SVP_atom44.out in order to generate an atomic fitting density for atom 51 (Ru with ECP) on-the-fly... 
    atom 51 (Ru), assumed electronic state with S=5: 1s2 2s2 2p6 3s2 3p6 4s2 3d10 4p6 5s2 4d6           ... done
Calculating cut-offs                               ... done
Initializing the effective Hamiltonian             ... done
Setting up the integral package (SHARK)            ... done
Starting the Coulomb interaction                   ... done (   0.7 sec)
Reading the grid                                   ... done
Mapping shells                                     ... done
Starting the XC term evaluation                    ... done (   0.3 sec)
  promolecular density results
     # of electrons  =    348.008916634
     EX              =   -375.881756113
     EC              =     -4.359661933
     EX+EC           =   -380.241418046
Transforming the Hamiltonian                       ... done (   0.1 sec)
Diagonalizing the Hamiltonian                      ... done (   0.1 sec)
Back transforming the eigenvectors                 ... done (   0.0 sec)
Now organizing SCF variables                       ... done
                      ------------------
                      INITIAL GUESS DONE (   2.8 sec)
                      ------------------
-------------------
DFT GRID GENERATION
-------------------

General Integration Accuracy     IntAcc      ... 4.388
Radial Grid Type                 RadialGrid  ... OptM3 with GC (2021)
Angular Grid (max. ang.)         AngularGrid ... 4 (Lebedev-302)
Angular grid pruning method      GridPruning ... 4 (adaptive)
Weight generation scheme         WeightScheme... Becke
Basis function cutoff            BFCut       ... 1.0000e-11
Integration weight cutoff        WCut        ... 1.0000e-14
Angular grids for H and He will be reduced by one unit
Partially contracted basis set               ... off
Rotationally invariant grid construction     ... off

Total number of grid points                  ...   362865
Total number of batches                      ...     5709
Average number of points per batch           ...       63
Average number of grid points per atom       ...     4904
Time for grid setup =    2.708 sec

--------------------
COSX GRID GENERATION
--------------------

GRIDX 1
-------
General Integration Accuracy     IntAcc      ... 3.816
Radial Grid Type                 RadialGrid  ... OptM3 with GC (2021)
Angular Grid (max. ang.)         AngularGrid ... 1 (Lebedev-50)
Angular grid pruning method      GridPruning ... 4 (adaptive)
Weight generation scheme         WeightScheme... Becke
Basis function cutoff            BFCut       ... 1.0000e-11
Integration weight cutoff        WCut        ... 1.0000e-14
Angular grids for H and He will be reduced by one unit
Partially contracted basis set               ... on
Rotationally invariant grid construction     ... off

Total number of grid points                  ...    45788
Total number of batches                      ...      744
Average number of points per batch           ...       61
Average number of grid points per atom       ...      619
UseSFitting                                  ... on

GRIDX 2
-------
General Integration Accuracy     IntAcc      ... 4.020
Radial Grid Type                 RadialGrid  ... OptM3 with GC (2021)
Angular Grid (max. ang.)         AngularGrid ... 2 (Lebedev-110)
Angular grid pruning method      GridPruning ... 4 (adaptive)
Weight generation scheme         WeightScheme... Becke
Basis function cutoff            BFCut       ... 1.0000e-11
Integration weight cutoff        WCut        ... 1.0000e-14
Angular grids for H and He will be reduced by one unit
Partially contracted basis set               ... on
Rotationally invariant grid construction     ... off

Total number of grid points                  ...    99493
Total number of batches                      ...     1592
Average number of points per batch           ...       62
Average number of grid points per atom       ...     1344
UseSFitting                                  ... on

GRIDX 3
-------
General Integration Accuracy     IntAcc      ... 4.338
Radial Grid Type                 RadialGrid  ... OptM3 with GC (2021)
Angular Grid (max. ang.)         AngularGrid ... 3 (Lebedev-194)
Angular grid pruning method      GridPruning ... 4 (adaptive)
Weight generation scheme         WeightScheme... Becke
Basis function cutoff            BFCut       ... 1.0000e-11
Integration weight cutoff        WCut        ... 1.0000e-14
Angular grids for H and He will be reduced by one unit
Partially contracted basis set               ... on
Rotationally invariant grid construction     ... off

Total number of grid points                  ...   215791
Total number of batches                      ...     3408
Average number of points per batch           ...       63
Average number of grid points per atom       ...     2916
UseSFitting                                  ... on

Time for X-Grid setup             =    2.863 sec


--------------------
CPCM SOLVATION MODEL
--------------------
CPCM parameters:
  Epsilon                                         ...      37.2190
  Refrac                                          ...       1.4305
  Rsolv                                           ...       1.3000
  Surface type                                    ... GAUSSIAN VDW
  Epsilon function type                           ...         CPCM
Solvent:                                     ... DMF
SMD-CDS solvent descriptors:
  Soln                                       ...    1.4305
  Soln25                                     ...    1.4280
  Sola                                       ...    0.0000
  Solb                                       ...    0.7400
  Solg                                       ...   49.5600
  Solc                                       ...    0.0000
  Solh                                       ...    0.0000
Radii:
 Radius for C  used is    3.4960 Bohr (=   1.8500 Ang.)
 Radius for H  used is    2.2677 Bohr (=   1.2000 Ang.)
 Radius for N  used is    3.5716 Bohr (=   1.8900 Ang.)
 Radius for Ru used is    3.9117 Bohr (=   2.0700 Ang.)
Calculating surface                               ...        done! (  0.0s)
GEPOL surface points                              ...         4064
GEPOL Volume                                      ...    3996.9030
GEPOL Surface-area                                ...    2020.7397
Calculating surface distance matrix               ...        done! (  0.1s)
Performing Cholesky decomposition & store         ...        done! (  0.5s)
Overall time for CPCM initialization              ...                 0.6s
--------------
SCF ITERATIONS
--------------
ITER       Energy         Delta-E        Max-DP      RMS-DP      [F,P]     Damp
               ***  Starting incremental Fock matrix formation  ***
  0  -1917.6104483268   0.000000000000 0.20075234  0.00169597  0.3420335 0.7000
  1  -1918.1557876788  -0.545339351961 0.10341605  0.00117466  0.2892737 0.7000
  2  -1918.3940656703  -0.238277991526 0.07281907  0.00081536  0.2271376 0.7000
                               ***Turning on DIIS***
  3  -1918.5526140553  -0.158548385010 0.06304241  0.00059261  0.1636710 0.7000
  4  -1918.6692207494  -0.116606694091 0.04106281  0.00042954  0.1122282 0.7000
  5  -1918.7535597747  -0.084339025269 0.08666836  0.00105553  0.0773801 0.0000
  6  -1918.9672866819  -0.213726907178 0.01619621  0.00013702  0.0086418 0.0000
  7  -1918.9717560838  -0.004469401916 0.01208105  0.00009282  0.0045239 0.0000
  8  -1918.9736347829  -0.001878699101 0.00660988  0.00006910  0.0031521 0.0000
  9  -1918.9743239948  -0.000689211932 0.00371473  0.00003048  0.0014423 0.0000
 10  -1918.9745043974  -0.000180402605 0.00235291  0.00003116  0.0006125 0.0000
               *** Restarting incremental Fock matrix formation ***
                                   *** Resetting DIIS ***
 11  -1918.9739194595   0.000584937950 0.00157852  0.00002838  0.0002621 0.0000
 12  -1918.9739259125  -0.000006453045 0.00034999  0.00000427  0.0002427 0.0000
 13  -1918.9739269865  -0.000001073977 0.00024801  0.00000281  0.0000833 0.0000
 14  -1918.9739274530  -0.000000466559 0.00012399  0.00000103  0.0000780 0.0000
 15  -1918.9739275644  -0.000000111330 0.00008256  0.00000068  0.0000303 0.0000
 16  -1918.9739275847  -0.000000020372 0.00005635  0.00000031  0.0000166 0.0000
 17  -1918.9739275713   0.000000013457 0.00001858  0.00000012  0.0000098 0.0000
 18  -1918.9739275843  -0.000000013052 0.00001507  0.00000008  0.0000029 0.0000
 19  -1918.9739275848  -0.000000000450 0.00000476  0.00000004  0.0000029 0.0000
                            ***DIIS convergence achieved***

               *****************************************************
               *                     SUCCESS                       *
               *           SCF CONVERGED AFTER  20 CYCLES          *
               *****************************************************

Old exchange energy                            =   -161.344459805 Eh
New exchange energy                            =   -161.344626481 Eh
Exchange energy change after final integration =     -0.000166675 Eh
Total energy after final integration           =  -1918.974094209 Eh
Final COS-X integration done in                =    69.576 sec

SMD CDS free energy correction energy :                -6.37806     Kcal/mol
Total Energy after SMD CDS correction =             -1918.984258291 Eh

----------------
TOTAL SCF ENERGY
----------------

Total Energy       :        -1918.98425829 Eh          -52218.21639 eV

Components:
Nuclear Repulsion  :         6024.90548762 Eh          163946.01317 eV
Electronic Energy  :        -7943.88974591 Eh         -216164.22956 eV
One Electron Energy:       -14572.76192985 Eh         -396545.01207 eV
Two Electron Energy:         6628.87218394 Eh          180380.78251 eV
Max COSX asymmetry :            0.00007265 Eh               0.00198 eV
CPCM Dielectric    :           -0.21372818 Eh              -5.81584 eV
SMD CDS (Gcds)     :           -0.01016408 Eh              -0.27658 eV

Virial components:
Potential Energy   :        -3761.36861512 Eh         -102352.04349 eV
Kinetic Energy     :         1842.38435683 Eh           50133.82710 eV
Virial Ratio       :            2.04157650


DFT components:
N(Alpha)           :      159.000017660883 electrons
N(Beta)            :      159.000017660883 electrons
N(Total)           :      318.000035321766 electrons
E(X)               :      -97.451192856919 Eh       
E(C)               :       -7.982954812997 Eh       
E(XC)              :     -105.434147669916 Eh       
DFET-embed. en.    :        0.000000000000 Eh       
CPCM Solvation Model Properties:
Surface-charge          :           -2.06556493
Charge-correction       :            0.01167665 Eh               0.31774 eV
Free-energy (cav+disp)  :           -0.01016408 Eh              -0.27658 eV

---------------
SCF CONVERGENCE
---------------

  Last Energy change         ...    5.1053e-08  Tolerance :   1.0000e-08
  Last MAX-Density change    ...    0.0000e+00  Tolerance :   1.0000e-07
  Last RMS-Density change    ...    0.0000e+00  Tolerance :   5.0000e-09
  Last DIIS Error            ...    8.4488e-07  Tolerance :   5.0000e-07

             **** THE GBW FILE WAS UPDATED (Ru-PRC_2_wB2PLYP_def2SVP.gbw) ****
             **** DENSITY Ru-PRC_2_wB2PLYP_def2SVP.scfp WAS UPDATED ****
             **** ENERGY FILE WAS UPDATED (Ru-PRC_2_wB2PLYP_def2SVP.en.tmp) ****
             **** THE GBW FILE WAS UPDATED (Ru-PRC_2_wB2PLYP_def2SVP.gbw) ****
             **** DENSITY Ru-PRC_2_wB2PLYP_def2SVP.scfp WAS UPDATED ****
----------------
ORBITAL ENERGIES
----------------

  NO   OCC          E(Eh)            E(eV) 
   0   2.0000     -14.978255      -407.5791 
   1   2.0000     -14.978128      -407.5756 
   2   2.0000     -14.977975      -407.5714 
   3   2.0000     -14.977972      -407.5713 
   4   2.0000     -14.977885      -407.5690 
   5   2.0000     -14.977804      -407.5668 
   6   2.0000     -10.767842      -293.0079 
   7   2.0000     -10.767523      -292.9992 
   8   2.0000     -10.767279      -292.9925 
   9   2.0000     -10.767221      -292.9910 
  10   2.0000     -10.766922      -292.9828 
  11   2.0000     -10.766482      -292.9709 
  12   2.0000     -10.766167      -292.9623 
  13   2.0000     -10.766096      -292.9604 
  14   2.0000     -10.765992      -292.9575 
  15   2.0000     -10.765882      -292.9546 
  16   2.0000     -10.765838      -292.9534 
  17   2.0000     -10.764855      -292.9266 
  18   2.0000     -10.738868      -292.2194 
  19   2.0000     -10.738576      -292.2115 
  20   2.0000     -10.738512      -292.2098 
  21   2.0000     -10.738433      -292.2076 
  22   2.0000     -10.738430      -292.2075 
  23   2.0000     -10.738042      -292.1970 
  24   2.0000     -10.737965      -292.1949 
  25   2.0000     -10.737746      -292.1889 
  26   2.0000     -10.737668      -292.1868 
  27   2.0000     -10.737597      -292.1849 
  28   2.0000     -10.737572      -292.1842 
  29   2.0000     -10.737337      -292.1778 
  30   2.0000     -10.734826      -292.1095 
  31   2.0000     -10.724077      -291.8170 
  32   2.0000     -10.723781      -291.8089 
  33   2.0000     -10.723727      -291.8074 
  34   2.0000     -10.723631      -291.8048 
  35   2.0000     -10.723627      -291.8047 
  36   2.0000     -10.723130      -291.7912 
  37   2.0000     -10.723053      -291.7891 
  38   2.0000     -10.723034      -291.7886 
  39   2.0000     -10.722241      -291.7670 
  40   2.0000     -10.722148      -291.7645 
  41   2.0000     -10.722145      -291.7644 
  42   2.0000     -10.719884      -291.7029 
  43   2.0000     -10.697065      -291.0819 
  44   2.0000     -10.690346      -290.8991 
  45   2.0000      -3.299550       -89.7853 
  46   2.0000      -2.076309       -56.4993 
  47   2.0000      -2.075973       -56.4901 
  48   2.0000      -2.068851       -56.2963 
  49   2.0000      -1.212530       -32.9946 
  50   2.0000      -1.205081       -32.7919 
  51   2.0000      -1.204861       -32.7859 
  52   2.0000      -1.176543       -32.0154 
  53   2.0000      -1.176019       -32.0011 
  54   2.0000      -1.175728       -31.9932 
  55   2.0000      -1.073177       -29.2026 
  56   2.0000      -1.070785       -29.1375 
  57   2.0000      -1.070645       -29.1337 
  58   2.0000      -1.046920       -28.4881 
  59   2.0000      -1.024345       -27.8738 
  60   2.0000      -1.024086       -27.8668 
  61   2.0000      -1.022927       -27.8353 
  62   2.0000      -1.020419       -27.7670 
  63   2.0000      -1.020139       -27.7594 
  64   2.0000      -0.990869       -26.9629 
  65   2.0000      -0.956044       -26.0153 
  66   2.0000      -0.955736       -26.0069 
  67   2.0000      -0.952749       -25.9256 
  68   2.0000      -0.951812       -25.9001 
  69   2.0000      -0.951373       -25.8882 
  70   2.0000      -0.941564       -25.6213 
  71   2.0000      -0.873224       -23.7616 
  72   2.0000      -0.853843       -23.2342 
  73   2.0000      -0.852520       -23.1983 
  74   2.0000      -0.852154       -23.1883 
  75   2.0000      -0.837900       -22.8004 
  76   2.0000      -0.837209       -22.7816 
  77   2.0000      -0.834695       -22.7132 
  78   2.0000      -0.829185       -22.5633 
  79   2.0000      -0.828927       -22.5563 
  80   2.0000      -0.827251       -22.5106 
  81   2.0000      -0.792997       -21.5786 
  82   2.0000      -0.791383       -21.5346 
  83   2.0000      -0.790914       -21.5219 
  84   2.0000      -0.745230       -20.2787 
  85   2.0000      -0.731513       -19.9055 
  86   2.0000      -0.729960       -19.8632 
  87   2.0000      -0.729151       -19.8412 
  88   2.0000      -0.716636       -19.5007 
  89   2.0000      -0.715531       -19.4706 
  90   2.0000      -0.695100       -18.9146 
  91   2.0000      -0.694188       -18.8898 
  92   2.0000      -0.692826       -18.8528 
  93   2.0000      -0.692563       -18.8456 
  94   2.0000      -0.655892       -17.8477 
  95   2.0000      -0.653596       -17.7852 
  96   2.0000      -0.652394       -17.7526 
  97   2.0000      -0.651300       -17.7228 
  98   2.0000      -0.650068       -17.6893 
  99   2.0000      -0.645099       -17.5540 
 100   2.0000      -0.639215       -17.3939 
 101   2.0000      -0.638831       -17.3835 
 102   2.0000      -0.637501       -17.3473 
 103   2.0000      -0.614579       -16.7235 
 104   2.0000      -0.613587       -16.6966 
 105   2.0000      -0.607740       -16.5374 
 106   2.0000      -0.604243       -16.4423 
 107   2.0000      -0.598327       -16.2813 
 108   2.0000      -0.592974       -16.1356 
 109   2.0000      -0.592507       -16.1229 
 110   2.0000      -0.587738       -15.9932 
 111   2.0000      -0.587424       -15.9846 
 112   2.0000      -0.582692       -15.8559 
 113   2.0000      -0.581818       -15.8321 
 114   2.0000      -0.581011       -15.8101 
 115   2.0000      -0.570109       -15.5134 
 116   2.0000      -0.568429       -15.4677 
 117   2.0000      -0.566592       -15.4178 
 118   2.0000      -0.566289       -15.4095 
 119   2.0000      -0.564384       -15.3577 
 120   2.0000      -0.561496       -15.2791 
 121   2.0000      -0.558669       -15.2021 
 122   2.0000      -0.555816       -15.1245 
 123   2.0000      -0.553713       -15.0673 
 124   2.0000      -0.548040       -14.9129 
 125   2.0000      -0.541104       -14.7242 
 126   2.0000      -0.535160       -14.5624 
 127   2.0000      -0.523639       -14.2489 
 128   2.0000      -0.519861       -14.1461 
 129   2.0000      -0.514301       -13.9948 
 130   2.0000      -0.511058       -13.9066 
 131   2.0000      -0.509297       -13.8587 
 132   2.0000      -0.504496       -13.7280 
 133   2.0000      -0.490859       -13.3570 
 134   2.0000      -0.490404       -13.3446 
 135   2.0000      -0.487772       -13.2729 
 136   2.0000      -0.485209       -13.2032 
 137   2.0000      -0.480546       -13.0763 
 138   2.0000      -0.479940       -13.0598 
 139   2.0000      -0.476652       -12.9704 
 140   2.0000      -0.454822       -12.3763 
 141   2.0000      -0.453612       -12.3434 
 142   2.0000      -0.449906       -12.2426 
 143   2.0000      -0.443854       -12.0779 
 144   2.0000      -0.440642       -11.9905 
 145   2.0000      -0.434238       -11.8162 
 146   2.0000      -0.430973       -11.7274 
 147   2.0000      -0.425758       -11.5855 
 148   2.0000      -0.423846       -11.5334 
 149   2.0000      -0.382619       -10.4116 
 150   2.0000      -0.357435        -9.7263 
 151   2.0000      -0.357159        -9.7188 
 152   2.0000      -0.352509        -9.5923 
 153   2.0000      -0.347719        -9.4619 
 154   2.0000      -0.341108        -9.2820 
 155   2.0000      -0.332196        -9.0395 
 156   2.0000      -0.321623        -8.7518 
 157   2.0000      -0.316478        -8.6118 
 158   2.0000      -0.315055        -8.5731 
 159   0.0000      -0.001849        -0.0503 
 160   0.0000       0.005651         0.1538 
 161   0.0000       0.007351         0.2000 
 162   0.0000       0.011241         0.3059 
 163   0.0000       0.015880         0.4321 
 164   0.0000       0.016345         0.4448 
 165   0.0000       0.057532         1.5655 
 166   0.0000       0.070709         1.9241 
 167   0.0000       0.074051         2.0150 
 168   0.0000       0.089448         2.4340 
 169   0.0000       0.103859         2.8261 
 170   0.0000       0.105239         2.8637 
 171   0.0000       0.129368         3.5203 
 172   0.0000       0.134229         3.6525 
 173   0.0000       0.144704         3.9376 
 174   0.0000       0.146080         3.9750 
 175   0.0000       0.152394         4.1469 
 176   0.0000       0.160636         4.3711 
 177   0.0000       0.162666         4.4264 
 178   0.0000       0.162920         4.4333 
 179   0.0000       0.166092         4.5196 
 180   0.0000       0.166785         4.5384 
 181   0.0000       0.168357         4.5812 
 182   0.0000       0.169836         4.6215 
 183   0.0000       0.180213         4.9038 
 184   0.0000       0.181533         4.9398 
 185   0.0000       0.184296         5.0150 
 186   0.0000       0.186943         5.0870 
 187   0.0000       0.190007         5.1703 
 188   0.0000       0.192954         5.2505 
 189   0.0000       0.196937         5.3589 
 190   0.0000       0.203331         5.5329 
 191   0.0000       0.208431         5.6717 
 192   0.0000       0.214687         5.8419 
 193   0.0000       0.217467         5.9176 
 194   0.0000       0.220730         6.0064 
 195   0.0000       0.222961         6.0671 
 196   0.0000       0.226657         6.1676 
 197   0.0000       0.233678         6.3587 
 198   0.0000       0.238320         6.4850 
 199   0.0000       0.241305         6.5662 
 200   0.0000       0.243871         6.6361 
 201   0.0000       0.245626         6.6838 
 202   0.0000       0.252058         6.8588 
 203   0.0000       0.256463         6.9787 
 204   0.0000       0.261859         7.1256 
 205   0.0000       0.263374         7.1668 
 206   0.0000       0.266491         7.2516 
 207   0.0000       0.268785         7.3140 
 208   0.0000       0.272184         7.4065 
 209   0.0000       0.272837         7.4243 
 210   0.0000       0.301460         8.2031 
 211   0.0000       0.315785         8.5929 
 212   0.0000       0.328835         8.9481 
 213   0.0000       0.334184         9.0936 
 214   0.0000       0.335246         9.1225 
 215   0.0000       0.337547         9.1851 
 216   0.0000       0.339066         9.2265 
 217   0.0000       0.340139         9.2556 
 218   0.0000       0.341073         9.2811 
 219   0.0000       0.348054         9.4710 
 220   0.0000       0.348862         9.4930 
 221   0.0000       0.353114         9.6087 
 222   0.0000       0.354138         9.6366 
 223   0.0000       0.363858         9.9011 
 224   0.0000       0.365421         9.9436 
 225   0.0000       0.368246        10.0205 
 226   0.0000       0.370478        10.0812 
 227   0.0000       0.373257        10.1568 
 228   0.0000       0.375631        10.2214 
 229   0.0000       0.385706        10.4956 
 230   0.0000       0.388743        10.5782 
 231   0.0000       0.393877        10.7179 
 232   0.0000       0.397042        10.8041 
 233   0.0000       0.399817        10.8796 
 234   0.0000       0.400146        10.8885 
 235   0.0000       0.403068        10.9680 
 236   0.0000       0.405337        11.0298 
 237   0.0000       0.409275        11.1369 
 238   0.0000       0.411622        11.2008 
 239   0.0000       0.413047        11.2396 
 240   0.0000       0.415873        11.3165 
 241   0.0000       0.418842        11.3973 
 242   0.0000       0.420498        11.4423 
 243   0.0000       0.425285        11.5726 
 244   0.0000       0.429043        11.6749 
 245   0.0000       0.430799        11.7226 
 246   0.0000       0.437342        11.9007 
 247   0.0000       0.443860        12.0781 
 248   0.0000       0.445699        12.1281 
 249   0.0000       0.449225        12.2240 
 250   0.0000       0.451118        12.2755 
 251   0.0000       0.458195        12.4681 
 252   0.0000       0.462672        12.5899 
 253   0.0000       0.469137        12.7659 
 254   0.0000       0.473336        12.8801 
 255   0.0000       0.477881        13.0038 
 256   0.0000       0.478619        13.0239 
 257   0.0000       0.484758        13.1909 
 258   0.0000       0.487073        13.2539 
 259   0.0000       0.495484        13.4828 
 260   0.0000       0.496950        13.5227 
 261   0.0000       0.501359        13.6427 
 262   0.0000       0.508925        13.8486 
 263   0.0000       0.518051        14.0969 
 264   0.0000       0.525916        14.3109 
 265   0.0000       0.528466        14.3803 
 266   0.0000       0.533666        14.5218 
 267   0.0000       0.535228        14.5643 
 268   0.0000       0.538867        14.6633 
 269   0.0000       0.542086        14.7509 
 270   0.0000       0.547131        14.8882 
 271   0.0000       0.552858        15.0440 
 272   0.0000       0.557264        15.1639 
 273   0.0000       0.563900        15.3445 
 274   0.0000       0.565477        15.3874 
 275   0.0000       0.570356        15.5202 
 276   0.0000       0.571104        15.5405 
 277   0.0000       0.573400        15.6030 
 278   0.0000       0.573728        15.6119 
 279   0.0000       0.576738        15.6938 
 280   0.0000       0.579244        15.7620 
 281   0.0000       0.584553        15.9065 
 282   0.0000       0.587994        16.0001 
[...]
   150a -> 163a  :     0.262994 
   150a -> 164a  :     0.010652 
   151a -> 162a  :     0.104848 
   151a -> 164a  :     0.046721 
   152a -> 160a  :     0.057478 
   152a -> 163a  :     0.047137 
   153a -> 161a  :     0.020779 
   153a -> 162a  :     0.113891 
   153a -> 164a  :     0.020977 
   154a -> 161a  :     0.053246 
   155a -> 160a  :     0.010032 
   156a -> 163a  :     0.081276 
   157a -> 163a  :     0.010962 

STATE 37:  E=   0.194320 au      5.288 eV    42648.3 cm**-1 <S**2> =   0.000000
   150a -> 161a  :     0.021932 
   150a -> 162a  :     0.183392 
   150a -> 164a  :     0.053991 
   151a -> 160a  :     0.022977 
   151a -> 163a  :     0.164660 
   152a -> 161a  :     0.050563 
   152a -> 162a  :     0.049038 
   152a -> 164a  :     0.021545 
   153a -> 163a  :     0.122916 
   154a -> 159a  :     0.010668 
   154a -> 160a  :     0.067846 
   156a -> 164a  :     0.034671 
   157a -> 161a  :     0.016377 
   158a -> 163a  :     0.023634 

STATE 38:  E=   0.207398 au      5.644 eV    45518.6 cm**-1 <S**2> =   0.000000
   142a -> 164a  :     0.010991 
   148a -> 159a  :     0.013521 
   149a -> 159a  :     0.108358 
   149a -> 162a  :     0.030067 
   149a -> 164a  :     0.061798 
   149a -> 168a  :     0.010619 
   154a -> 159a  :     0.010795 
   154a -> 166a  :     0.036678 
   155a -> 168a  :     0.017946 
   156a -> 164a  :     0.015137 
   156a -> 168a  :     0.039037 
   157a -> 165a  :     0.025114 
   158a -> 159a  :     0.017530 
   158a -> 165a  :     0.272758 
   158a -> 166a  :     0.050953 
   158a -> 168a  :     0.020353 

STATE 39:  E=   0.205004 au      5.578 eV    44993.1 cm**-1 <S**2> =   0.000000
   144a -> 163a  :     0.013284 
   146a -> 161a  :     0.016383 
   147a -> 162a  :     0.015667 
   148a -> 160a  :     0.010273 
   153a -> 167a  :     0.037127 
   154a -> 161a  :     0.017684 
   154a -> 167a  :     0.092053 
   156a -> 163a  :     0.021038 
   156a -> 165a  :     0.064038 
   157a -> 165a  :     0.266366 
   157a -> 166a  :     0.070093 
   158a -> 165a  :     0.060842 
   158a -> 166a  :     0.029434 
   158a -> 167a  :     0.021629 

STATE 40:  E=   0.209861 au      5.711 eV    46059.1 cm**-1 <S**2> =   0.000000
   145a -> 161a  :     0.010884 
   146a -> 163a  :     0.013287 
   147a -> 160a  :     0.018480 
   149a -> 159a  :     0.063051 
   149a -> 162a  :     0.011861 
   149a -> 164a  :     0.028545 
   150a -> 162a  :     0.010277 
   152a -> 167a  :     0.038939 
   153a -> 160a  :     0.012554 
   154a -> 165a  :     0.025896 
   154a -> 166a  :     0.039806 
   155a -> 167a  :     0.040695 
   156a -> 165a  :     0.093717 
   156a -> 168a  :     0.014065 
   157a -> 165a  :     0.098393 
   157a -> 167a  :     0.050601 
   157a -> 169a  :     0.011535 
   158a -> 165a  :     0.060332 
   158a -> 166a  :     0.029494 
   158a -> 167a  :     0.024579 


-------------------------
TD-DFT-EXCITATION SPECTRA
-------------------------

Center of mass = (  0.0489, -0.0060,  0.0290)
Calculating the Dipole integrals                  ... done
Transforming integrals                            ... done
Calculating the Linear Momentum integrals         ... done
Transforming integrals                            ... done
Calculating angular momentum integrals            ... done
Transforming integrals                            ... done

-----------------------------------------------------------------------------
         ABSORPTION SPECTRUM VIA TRANSITION ELECTRIC DIPOLE MOMENTS
-----------------------------------------------------------------------------
State   Energy    Wavelength  fosc         T2        TX        TY        TZ  
        (cm-1)      (nm)                 (au**2)    (au)      (au)      (au) 
-----------------------------------------------------------------------------
   1   30969.2    322.9   0.000417294   0.00444  -0.06584  -0.00709   0.00717
   2   31041.7    322.1   0.000318894   0.00338  -0.01526   0.05607  -0.00240
   3   32109.9    311.4   0.000047009   0.00048   0.01146   0.01870  -0.00096
   4   31517.1    317.3   0.145746260   1.52239   0.77225  -0.54572   0.79260
   5   29756.6    336.1   0.081924077   0.90637  -0.60718  -0.72875   0.08137
   6   30126.7    331.9   0.117681016   1.28597   0.88603  -0.63295  -0.31669
   7   31717.3    315.3   0.021118148   0.21920  -0.31571  -0.34268   0.04580
   8   31033.0    322.2   0.003526930   0.03742  -0.13756  -0.13382   0.02417
   9   31425.3    318.2   0.010875266   0.11393   0.28042  -0.18723   0.01551
  10   33720.6    296.6   0.004544185   0.04436   0.13085  -0.12342   0.10959
  11   34517.7    289.7   0.002682135   0.02558   0.06655   0.14507   0.01027
  12   35150.3    284.5   0.003734438   0.03498  -0.06965  -0.05555   0.16443
  13   31336.0    319.1   0.006767003   0.07109   0.01765   0.24206   0.11039
  14   31499.1    317.5   0.029048207   0.30360  -0.17736   0.45046  -0.26311
  15   31992.2    312.6   0.003979726   0.04095  -0.04402   0.17358  -0.09426
  16   30421.1    328.7   0.026740755   0.28938   0.02027  -0.42914   0.32375
  17   32183.9    310.7   0.010038295   0.10268  -0.11354   0.16489   0.25020
  18   32083.7    311.7   0.088179968   0.90482  -0.16503  -0.74260  -0.57107
  19   32565.2    307.1   0.285058136   2.88174  -0.46849  -1.38399   0.86420
  20   32379.2    308.8   0.321269795   3.26648  -1.40151   1.03955   0.47073
  21   36750.5    272.1   0.953332348   8.53997  -2.64461   0.47766  -1.14797
  22   32916.4    303.8   0.008584113   0.08585  -0.27147   0.01757   0.10886
  23   39034.9    256.2   0.455350402   3.84033  -0.94034  -1.66594   0.42514
  24   39959.1    250.3   1.480856217  12.20037  -0.59284  -0.42317  -3.41611
  25   35524.0    281.5   0.143111829   1.32626  -0.83103  -0.64769  -0.46492
  26   32887.6    304.1   0.035039949   0.35076  -0.38452   0.45033   0.01044
  27   33149.9    301.7   0.035269107   0.35026   0.53759   0.13916  -0.20466
  28   33635.6    297.3   0.028754306   0.28144  -0.48313  -0.20484  -0.07783
  29   34865.8    286.8   0.060525940   0.57150   0.12526  -0.67728  -0.31162
  30   36567.9    273.5   0.108992440   0.98123  -0.95534  -0.15465  -0.21129
  31   34005.0    294.1   0.022569467   0.21850  -0.38414   0.03311  -0.26428
  32   33614.9    297.5   0.003911304   0.03831   0.03968  -0.12399   0.14614
  33   34204.3    292.4   0.067617466   0.65081  -0.26942  -0.13164  -0.74893
  34   37277.6    268.3   0.016210410   0.14316  -0.06066   0.03122   0.37216
  35   37792.5    264.6   0.212930248   1.85484  -1.06304  -0.84723   0.08364
  36   41654.8    240.1   0.574791047   4.54277  -1.63203   1.24466   0.57453
  37   42648.3    234.5   0.151836572   1.17206   0.49729   0.86697  -0.41609
  38   45518.6    219.7   0.372313969   2.69275  -0.37782   1.30402  -0.92171
  39   44993.1    222.3   0.238619219   1.74596  -0.63138   0.49941   1.04781
  40   46059.1    217.1   0.192061109   1.37278  -0.99775  -0.37162  -0.48905

-----------------------------------------------------------------------------
         ABSORPTION SPECTRUM VIA TRANSITION VELOCITY DIPOLE MOMENTS
-----------------------------------------------------------------------------
State   Energy    Wavelength   fosc        P2         PX        PY        PZ  
        (cm-1)      (nm)                 (au**2)     (au)      (au)      (au) 
-----------------------------------------------------------------------------
   1   30969.2    322.9   0.000394612   0.00008   0.00904   0.00076  -0.00115
   2   31041.7    322.1   0.000308467   0.00007   0.00202  -0.00782   0.00039
   3   32109.9    311.4   0.000039016   0.00001  -0.00127  -0.00250   0.00083
   4   31517.1    317.3   0.163847205   0.03529  -0.11351   0.08779  -0.12125
   5   29756.6    336.1   0.126140546   0.02565   0.10131   0.12322  -0.01443
   6   30126.7    331.9   0.181651935   0.03740  -0.15105   0.10803   0.05398
   7   31717.3    315.3   0.029510823   0.00640   0.05270   0.05948  -0.00902
   8   31033.0    322.2   0.005057501   0.00107   0.02327   0.02263  -0.00436
   9   31425.3    318.2   0.014617632   0.00314  -0.04585   0.03220   0.00100
  10   33720.6    296.6   0.006089586   0.00140  -0.02352   0.02205  -0.01908
  11   34517.7    289.7   0.002791325   0.00066  -0.01023  -0.02343  -0.00220
  12   35150.3    284.5   0.004316826   0.00104   0.01131   0.00931  -0.02868
  13   31336.0    319.1   0.009964880   0.00213  -0.00381  -0.04188  -0.01913
  14   31499.1    317.5   0.042041472   0.00905   0.02910  -0.07818   0.04573
  15   31992.2    312.6   0.005657709   0.00124   0.00805  -0.02984   0.01679
  16   30421.1    328.7   0.042529457   0.00884  -0.00121   0.07423  -0.05772
  17   32183.9    310.7   0.014659176   0.00322   0.02220  -0.02741  -0.04450
  18   32083.7    311.7   0.130871169   0.02870   0.02932   0.13219   0.10180
  19   32565.2    307.1   0.403471024   0.08980   0.07943   0.24407  -0.15465
  20   32379.2    308.8   0.457699600   0.10129   0.24683  -0.18305  -0.08280
  21   36750.5    272.1   1.079305723   0.27109   0.46971  -0.08756   0.20688
  22   32916.4    303.8   0.012433142   0.00280   0.04880  -0.00341  -0.02009
  23   39034.9    256.2   0.485470135   0.12952   0.17256   0.30596  -0.07827
  24   39959.1    250.3   1.557668900   0.42540   0.11065   0.07639   0.63822
  25   35524.0    281.5   0.213076574   0.05173   0.16148   0.13699   0.08301
  26   32887.6    304.1   0.065335011   0.01469   0.07841  -0.09230  -0.00418
  27   33149.9    301.7   0.066165289   0.01499  -0.11134  -0.02883   0.04198
  28   33635.6    297.3   0.050436314   0.01159   0.09708   0.04542   0.01035
  29   34865.8    286.8   0.103858787   0.02475  -0.02871   0.14130   0.06292
  30   36567.9    273.5   0.164048056   0.04100   0.19574   0.03092   0.04158
  31   34005.0    294.1   0.036648495   0.00852   0.07629  -0.00617   0.05157
  32   33614.9    297.5   0.006072954   0.00140  -0.00934   0.02265  -0.02819
  33   34204.3    292.4   0.108035686   0.02526   0.05499   0.02500   0.14699
  34   37277.6    268.3   0.020135265   0.00513   0.01887  -0.01223  -0.06800
  35   37792.5    264.6   0.323145088   0.08347   0.22320   0.18246  -0.01884
  36   41654.8    240.1   0.748928946   0.21321   0.35360  -0.26943  -0.12485
  37   42648.3    234.5   0.190261291   0.05546  -0.10916  -0.18833   0.08984
  38   45518.6    219.7   0.421990127   0.13128   0.08051  -0.28950   0.20245
  39   44993.1    222.3   0.295357429   0.09082   0.14449  -0.11456  -0.23837
  40   46059.1    217.1   0.224508047   0.07067   0.22580   0.08928   0.10824

-------------------------------------------------------------------
                             CD SPECTRUM
-------------------------------------------------------------------
State  Energy     Wavelength     R         MX        MY        MZ   
       (cm-1)       (nm)     (1e40*cgs)   (au)      (au)      (au)  
-------------------------------------------------------------------
   1   30969.2    322.9     26.48181  -0.82396  -0.00282   0.26561
   2   31041.7    322.1     22.64536   0.02221   0.86467   0.04425
   3   32109.9    311.4     -0.66179  -0.28286   0.05535  -0.83915
   4   31517.1    317.3     -1.82291  -0.33572   0.31617   0.53992
   5   29756.6    336.1    -24.16815   0.11762  -0.04564  -0.16107
   6   30126.7    331.9    -36.66398  -0.03945   0.08255  -0.02981
   7   31717.3    315.3      1.99275   0.01576  -0.03306  -0.04648
   8   31033.0    322.2     35.96432  -0.19644  -0.35982   0.04593
   9   31425.3    318.2     46.74229   0.27293  -0.09690   0.28810
  10   33720.6    296.6    -10.29475  -0.05748  -0.01458  -0.14705
  11   34517.7    289.7      1.46551  -0.02052   0.03233  -0.02104
  12   35150.3    284.5     -0.24491   0.06761  -0.02363   0.01750
  13   31336.0    319.1      9.20828   0.02066   0.02516   0.11845
  14   31499.1    317.5     39.89181  -0.23137   0.23704   0.24018
  15   31992.2    312.6     41.23661   0.38719   0.55884  -0.07968
  16   30421.1    328.7    -36.25869   0.28088   0.03963  -0.20261
  17   32183.9    310.7    -16.48025   0.77584   0.35664  -0.02267
  18   32083.7    311.7    -73.80130  -0.51945   0.80883  -0.62755
  19   32565.2    307.1    -100.22703   0.17185   0.39103   0.47338
  20   32379.2    308.8    -101.76487   0.04703  -0.16065   0.03624
  21   36750.5    272.1    -841.52315   1.06495  -0.84898  -1.25171
  22   32916.4    303.8    -66.66008   0.47420   0.16349  -0.14273
  23   39034.9    256.2    -1929.82868   1.08945   1.73646  -0.41422
  24   39959.1    250.3    2485.97831  -1.34204   0.80306  -1.41016
  25   35524.0    281.5    228.99139   0.05884  -0.38655  -0.61138
  26   32887.6    304.1     63.56820  -0.15352   0.16824   0.00390
  27   33149.9    301.7     94.62793   0.29278   0.04278  -0.18258
  28   33635.6    297.3    -41.08261   0.23603   0.02020  -0.39868
  29   34865.8    286.8    -84.11412  -0.09910   0.19107   0.11745
  30   36567.9    273.5    -19.88424  -0.03616   0.10567   0.28575
  31   34005.0    294.1      6.95023  -0.03294  -0.03307  -0.01205
  32   33614.9    297.5      4.56249  -0.05096  -0.06796   0.02240
  33   34204.3    292.4    -22.92979  -0.00018   0.02758   0.06016
  34   37277.6    268.3     39.48587  -0.09691   0.05079   0.20499
  35   37792.5    264.6    -37.72427   0.18757  -0.17211  -0.31611
  36   41654.8    240.1    -24.23235  -0.02948  -0.12042   0.08768
  37   42648.3    234.5     -3.93847   0.01191  -0.03118  -0.03064
  38   45518.6    219.7    -89.87526   0.27126  -0.54658  -0.67766
  39   44993.1    222.3     42.83064   0.32247  -0.20089   0.37676
  40   46059.1    217.1    -169.30406   0.61153   0.34608  -0.77630

-------------------------------------------------------------------
         CD SPECTRUM VIA TRANSITION VELOCITY DIPOLE MOMENTS        
-------------------------------------------------------------------
State  Energy     Wavelength     R         MX        MY        MZ   
       (cm-1)       (nm)     (1e40*cgs)   (au)      (au)      (au)  
-------------------------------------------------------------------
   1   30969.2    322.9     25.89843  -0.82396  -0.00282   0.26561
   2   31041.7    322.1     22.34330   0.02221   0.86467   0.04425
   3   32109.9    311.4      1.52143  -0.28286   0.05535  -0.83915
   4   31517.1    317.3     -1.32675  -0.33572   0.31617   0.53992
   5   29756.6    336.1    -29.96228   0.11762  -0.04564  -0.16107
   6   30126.7    331.9    -45.57284  -0.03945   0.08255  -0.02981
   7   31717.3    315.3      2.33900   0.01576  -0.03306  -0.04648
   8   31033.0    322.2     43.06141  -0.19644  -0.35982   0.04593
   9   31425.3    318.2     50.52354   0.27293  -0.09690   0.28810
  10   33720.6    296.6    -11.76992  -0.05748  -0.01458  -0.14705
  11   34517.7    289.7      1.50306  -0.02052   0.03233  -0.02104
  12   35150.3    284.5     -0.12598   0.06761  -0.02363   0.01750
  13   31336.0    319.1     11.22101   0.02066   0.02516   0.11845
  14   31499.1    317.5     46.91460  -0.23137   0.23704   0.24018
  15   31992.2    312.6     48.16919   0.38719   0.55884  -0.07968
  16   30421.1    328.7    -48.62333   0.28088   0.03963  -0.20261
  17   32183.9    310.7    -27.17941   0.77584   0.35664  -0.02267
  18   32083.7    311.7    -89.66161  -0.51945   0.80883  -0.62755
  19   32565.2    307.1    -114.00485   0.17185   0.39103   0.47338
  20   32379.2    308.8    -121.48065   0.04703  -0.16065   0.03624
  21   36750.5    272.1    -888.58200   1.06495  -0.84898  -1.25171
  22   32916.4    303.8    -80.00769   0.47420   0.16349  -0.14273
  23   39034.9    256.2    -1992.57905   1.08945   1.73646  -0.41422
  24   39959.1    250.3    2556.12839  -1.34204   0.80306  -1.41016
  25   35524.0    281.5    274.37794   0.05884  -0.38655  -0.61138
  26   32887.6    304.1     86.78170  -0.15352   0.16824   0.00390
  27   33149.9    301.7    129.52433   0.29278   0.04278  -0.18258
  28   33635.6    297.3    -60.62417   0.23603   0.02020  -0.39868
  29   34865.8    286.8    -110.49311  -0.09910   0.19107   0.11745
  30   36567.9    273.5    -22.84098  -0.03616   0.10567   0.28575
  31   34005.0    294.1      8.91613  -0.03294  -0.03307  -0.01205
  32   33614.9    297.5      5.21749  -0.05096  -0.06796   0.02240
  33   34204.3    292.4    -28.80626  -0.00018   0.02758   0.06016
  34   37277.6    268.3     45.49222  -0.09691   0.05079   0.20499
  35   37792.5    264.6    -44.95036   0.18757  -0.17211  -0.31611
  36   41654.8    240.1    -27.50992  -0.02948  -0.12042   0.08768
  37   42648.3    234.5     -4.41075   0.01191  -0.03118  -0.03064
  38   45518.6    219.7    -97.47654   0.27126  -0.54658  -0.67766
  39   44993.1    222.3     46.45986   0.32247  -0.20089   0.37676
  40   46059.1    217.1    -190.85765   0.61153   0.34608  -0.77630

Total run time:     7394.429 sec

           *** ORCA-CIS/TD-DFT FINISHED WITHOUT ERROR ***

Maximum memory used throughout the entire CIS-calculation: 4429.2 MB

-----------------------
CIS/TD-DFT TOTAL ENERGY
-----------------------

    E(SCF)  =  -1918.984258291 Eh
    DE(CIS) =      0.141105911 Eh (Root  1)
    ----------------------------- ---------
    E(tot)  =  -1918.843152379 Eh


-------------------------   --------------------
FINAL SINGLE POINT ENERGY     -1918.843152379396
-------------------------   --------------------


                            ***************************************
                            *     ORCA property calculations      *
                            ***************************************


  WARNING: The energy has been calculated at the MP2 level but the densities
           used in the property calculations are still SCF densities
           MP2 response densities have not been calculated 
           use %mp2 Density relaxed end
           or  %mp2 Density unrelaxed end

                                    ---------------------
                                    Active property flags
                                    ---------------------
   (+) Dipole Moment


------------------------------------------------------------------------------
                       ORCA ELECTRIC PROPERTIES CALCULATION
------------------------------------------------------------------------------

Dipole Moment Calculation                       ... on
Quadrupole Moment Calculation                   ... off
Polarizability Calculation                      ... off
GBWName                                         ... Ru-PRC_2_wB2PLYP_def2SVP.gbw
Electron density                                ... Ru-PRC_2_wB2PLYP_def2SVP.scfp
The origin for moment calculation is the CENTER OF MASS  = ( 0.048935, -0.006031  0.029029)

-------------
DIPOLE MOMENT
-------------
                                X             Y             Z
Electronic contribution:     35.82625      -1.76491      19.81335
Nuclear contribution   :    -34.75061       1.93911     -19.30544
                        -----------------------------------------
Total Dipole Moment    :      1.07565       0.17420       0.50791
                        -----------------------------------------
Magnitude (a.u.)       :      1.20222
Magnitude (Debye)      :      3.05580



--------------------
Rotational spectrum 
--------------------
 
Rotational constants in cm-1:     0.002931     0.002526     0.002104 
Rotational constants in MHz :    87.864409    75.721626    63.072758 

 Dipole components along the rotational axes: 
x,y,z [a.u.] :    -1.068348     0.168873     0.524834 
x,y,z [Debye]:    -2.715525     0.429242     1.334022 

 

Timings for individual modules:

Sum of individual times         ...     8229.020 sec (= 137.150 min)
GTO integral calculation        ...        3.532 sec (=   0.059 min)   0.0 %
SCF iterations                  ...      535.614 sec (=   8.927 min)   6.5 %
MP2 module                      ...      294.638 sec (=   4.911 min)   3.6 %
CIS module                      ...     7395.235 sec (= 123.254 min)  89.9 %
                             ****ORCA TERMINATED NORMALLY****
TOTAL RUN TIME: 0 days 2 hours 17 minutes 11 seconds 524 msec
