 Entering Gaussian System, Link 0=g16
 Input=/home/png4rjv/photocat/TMPC_bench/gaussian/Ru-PRC_2_CAM-B3LYP-D3_def2SVP.gjf
 Output=/home/png4rjv/photocat/TMPC_bench/gaussian/Ru-PRC_2_CAM-B3LYP-D3_def2SVP.log
 Initial command:
 /opt/software/packages/g16/l1.exe "/scratch/ligandum/png4rjv/3415573/Gau-3880541.inp" -scrdir="/scratch/ligandum/png4rjv/3415573/"
 Default is to use a total of  12 processors:
                               12 via shared-memory
                                1 via Linda
 Entering Link 1 = /opt/software/packages/g16/l1.exe PID=   3880548.
  
 Copyright (c) 1988-2021, Gaussian, Inc.  All Rights Reserved.
  
 This is part of the Gaussian(R) 16 program.  It is based on
 the Gaussian(R) 09 system (copyright 2009, Gaussian, Inc.),
 the Gaussian(R) 03 system (copyright 2003, Gaussian, Inc.),
 the Gaussian(R) 98 system (copyright 1998, Gaussian, Inc.),
 the Gaussian(R) 94 system (copyright 1995, Gaussian, Inc.),
 the Gaussian 92(TM) system (copyright 1992, Gaussian, Inc.),
 the Gaussian 90(TM) system (copyright 1990, Gaussian, Inc.),
 the Gaussian 88(TM) system (copyright 1988, Gaussian, Inc.),
 the Gaussian 86(TM) system (copyright 1986, Carnegie Mellon
 University), and the Gaussian 82(TM) system (copyright 1983,
 Carnegie Mellon University). Gaussian is a federally registered
 trademark of Gaussian, Inc.
  
 This software contains proprietary and confidential information,
 including trade secrets, belonging to Gaussian, Inc.
  
 This software is provided under written license and may be
 used, copied, transmitted, or stored only in accord with that
 written license.
  
 The following legend is applicable only to US Government
 contracts under FAR:
  
                    RESTRICTED RIGHTS LEGEND
  
 Use, reproduction and disclosure by the US Government is
 subject to restrictions as set forth in subparagraphs (a)
 and (c) of the Commercial Computer Software - Restricted
 Rights clause in FAR 52.227-19.
  
 Gaussian, Inc.
 340 Quinnipiac St., Bldg. 40, Wallingford CT 06492
  
  
 ---------------------------------------------------------------
 Warning -- This program may not be used in any manner that
 competes with the business of Gaussian, Inc. or will provide
 assistance to any competitor of Gaussian, Inc.  The licensee
 of this program is prohibited from giving any competitor of
 Gaussian, Inc. access to this program.  By using this program,
 the user acknowledges that Gaussian, Inc. is engaged in the
 business of creating and licensing software in the field of
 computational chemistry and represents and warrants to the
 licensee that it is not a competitor of Gaussian, Inc. and that
 it will not use this program in any manner prohibited above.
 ---------------------------------------------------------------
  

 Cite this work as:
 Gaussian 16, Revision C.02,
 M. J. Frisch, G. W. Trucks, H. B. Schlegel, G. E. Scuseria, 
 M. A. Robb, J. R. Cheeseman, G. Scalmani, V. Barone, 
 G. A. Petersson, H. Nakatsuji, X. Li, M. Caricato, A. V. Marenich, 
 J. Bloino, B. G. Janesko, R. Gomperts, B. Mennucci, H. P. Hratchian, 
 J. V. Ortiz, A. F. Izmaylov, J. L. Sonnenberg, D. Williams-Young, 
 F. Ding, F. Lipparini, F. Egidi, J. Goings, B. Peng, A. Petrone, 
 T. Henderson, D. Ranasinghe, V. G. Zakrzewski, J. Gao, N. Rega, 
 G. Zheng, W. Liang, M. Hada, M. Ehara, K. Toyota, R. Fukuda, 
 J. Hasegawa, M. Ishida, T. Nakajima, Y. Honda, O. Kitao, H. Nakai, 
 T. Vreven, K. Throssell, J. A. Montgomery, Jr., J. E. Peralta, 
 F. Ogliaro, M. J. Bearpark, J. J. Heyd, E. N. Brothers, K. N. Kudin, 
 V. N. Staroverov, T. A. Keith, R. Kobayashi, J. Normand, 
 K. Raghavachari, A. P. Rendell, J. C. Burant, S. S. Iyengar, 
 J. Tomasi, M. Cossi, J. M. Millam, M. Klene, C. Adamo, R. Cammi, 
 J. W. Ochterski, R. L. Martin, K. Morokuma, O. Farkas, 
 J. B. Foresman, and D. J. Fox, Gaussian, Inc., Wallingford CT, 2019.
 
 ******************************************
 Gaussian 16:  AS64L-G16RevC.02  7-Dec-2021
                 8-Jan-2024 
 ******************************************
 %chk=cp.chk
 %NProcshared=16
 Will use up to   16 processors via shared memory.
 Default route: MaxDisk=500GB
 ----------------------------------------------------------------------
 #p cam-b3lyp/def2svp opt=tight Symmetry=None int=ultrafine scrf=(SMD,s
 olvent=n,n-DiMethylFormamide) EmpiricalDispersion=GD3BJ
 ----------------------------------------------------------------------
 1/7=10,18=20,19=15,26=6,38=1/1,3;
 2/9=110,12=2,15=3,17=6,18=5,40=1/2;
 3/5=43,7=101,11=2,25=1,30=1,70=32201,71=1,72=148,74=-40,75=-5,124=41/1,2,3;
 4//1;
 5/5=2,38=5,53=148/2;
 6/7=2,8=2,9=2,10=2,28=1/1;
 7/30=1/1,2,3,16;
 1/7=10,18=20,19=15,26=6/3(2);
 2/9=110,15=3/2;
 99//99;
 2/9=110,15=3/2;
 3/5=43,7=101,11=2,25=1,30=1,70=32205,71=1,72=148,74=-40,75=-5,124=41/1,2,3;
 4/5=5,16=3,69=1/1;
 5/5=2,38=5,53=148/2;
 7/30=1/1,2,3,16;
 1/7=10,18=20,19=15,26=6/3(-5);
 2/9=110,15=3/2;
 6/7=2,8=2,9=2,10=2,19=2,28=1/1;
 99/9=1/99;
 Leave Link    1 at Mon Jan  8 11:01:27 2024, MaxMem=           0 cpu:               0.1 elap:               0.1
 (Enter /opt/software/packages/g16/l101.exe)
 -----
 Title
 -----
 Symbolic Z-matrix:
 Charge =  2 Multiplicity = 1
 C                    -1.65706  -2.05733   0.24703 
 C                    -2.4232   -0.32199  -1.06792 
 C                    -3.66006  -0.96331  -1.3123 
 C                    -3.84509  -2.21496  -0.73997 
 C                    -2.83604  -2.79454   0.05387 
 C                    -0.60885  -2.56797   1.0772 
 C                     1.47616  -2.2292    1.99861 
 C                     1.42784  -3.47651   2.63915 
 C                     0.32098  -4.2822    2.48167 
 C                    -0.74513  -3.82773   1.68312 
 H                    -2.20524   0.65601  -1.49604 
 H                    -4.76756  -2.76835  -0.88545 
 H                     2.3414   -1.57421   2.12109 
 H                     2.27188  -3.78807   3.25524 
 H                     0.2502   -5.25617   2.97113 
 C                    -0.67859   2.69411  -0.09788 
 C                     0.33874   2.08821  -2.08161 
 C                    -0.00736   3.323    -2.66342 
 C                    -0.70638   4.24917  -1.93206 
 C                    -1.06562   3.94597  -0.5986 
 C                    -1.0138    2.3194    1.24579 
 C                    -0.90734   0.70348   2.89252 
 C                    -1.615     1.53457   3.78479 
 C                    -2.02415   2.78141   3.37494 
 C                    -1.72916   3.20763   2.06195 
 H                     0.88973   1.33953  -2.64978 
 H                     0.29208   3.52163  -3.69728 
 H                    -0.99191   5.20886  -2.3552 
 H                    -0.56454  -0.28594   3.19886 
 H                    -1.8188    1.16989   4.79198 
 H                    -2.57445   3.43988   4.04712 
 C                     3.23607   0.20396  -0.20461 
 C                     2.65855   1.43413   1.65953 
 C                     3.99879   1.79871   1.86584 
 C                     4.97229   1.34234   1.00425 
 C                     4.6001    0.50854  -0.07323 
 C                     2.79258  -0.63983  -1.27698 
 C                     1.00503  -1.66621  -2.3351 
 C                     1.86036  -2.2202   -3.29865 
 C                     3.2128   -1.96511  -3.23204 
 C                     3.71286  -1.15007  -2.19975 
 H                     1.8714    1.78133   2.33175 
 H                     6.02288   1.60897   1.14398 
 H                    -0.06979  -1.84542  -2.35985 
 H                     3.9025   -2.38245  -3.97575 
 N                     2.28512   0.65783   0.65555 
 N                     0.48646  -1.78749   1.24339 
 N                    -0.61601   1.0826    1.66274 
 N                    -1.46313  -0.8418   -0.31982 
 N                     0.01434   1.77872  -0.84024 
 N                     1.45862  -0.88848  -1.34875 
 Ru                    0.36573   0.00752   0.17954 
 C                     5.52358  -0.02459  -1.02924 
 C                     5.10371  -0.81797  -2.04525 
 C                    -1.95782  -4.58      1.45224 
 C                    -2.95343  -4.08302   0.68451 
 C                    -2.11145   4.48484   1.52984 
 C                    -1.79922   4.83724   0.25392 
 H                     5.81734  -1.2208   -2.76628 
 H                     6.58096   0.22498  -0.91468 
 H                    -3.87332  -4.65097   0.52409 
 H                    -2.0523   -5.55815   1.92761 
 H                    -2.09562   5.80573  -0.14004 
 H                    -2.67303   5.16418   2.17769 
 H                     4.24575   2.43923   2.71072 
 H                     1.43834  -2.84577  -4.08153 
 C                    -4.68863  -0.26688  -2.13122 
 C                    -5.82025  -0.89179  -2.50971 
 H                    -6.05297  -1.9327   -2.25128 
 H                    -6.56794  -0.34731  -3.10008 
 C                    -4.42771   1.17349  -2.53138 
 H                    -4.23329   1.80894  -1.6428 
 H                    -3.53642   1.2531   -3.18677 
 H                    -5.28105   1.59662  -3.07849 
 
 ITRead=  0  0  0  0  0  0  0  0  0  0  0  0  0  0  0  0  0  0  0  0
 ITRead=  0  0  0  0  0  0  0  0  0  0  0  0  0  0  0  0  0  0  0  0
 ITRead=  0  0  0  0  0  0  0  0  0  0  0  0  0  0  0  0  0  0  0  0
 ITRead=  0  0  0  0  0  0  0  0  0  0  0  0  0  0
 MicOpt= -1 -1 -1 -1 -1 -1 -1 -1 -1 -1 -1 -1 -1 -1 -1 -1 -1 -1 -1 -1
 MicOpt= -1 -1 -1 -1 -1 -1 -1 -1 -1 -1 -1 -1 -1 -1 -1 -1 -1 -1 -1 -1
 MicOpt= -1 -1 -1 -1 -1 -1 -1 -1 -1 -1 -1 -1 -1 -1 -1 -1 -1 -1 -1 -1
 MicOpt= -1 -1 -1 -1 -1 -1 -1 -1 -1 -1 -1 -1 -1 -1
 NAtoms=     74 NQM=       74 NQMF=       0 NMMI=      0 NMMIF=      0
                NMic=       0 NMicF=      0.
                    Isotopes and Nuclear Properties:
 (Nuclear quadrupole moments (NQMom) in fm**2, nuclear magnetic moments (NMagM)
  in nuclear magnetons)

  Atom         1           2           3           4           5           6           7           8           9          10
 IAtWgt=          12          12          12          12          12          12          12          12          12          12
 AtmWgt=  12.0000000  12.0000000  12.0000000  12.0000000  12.0000000  12.0000000  12.0000000  12.0000000  12.0000000  12.0000000
 NucSpn=           0           0           0           0           0           0           0           0           0           0
 AtZEff=  -0.0000000  -0.0000000  -0.0000000  -0.0000000  -0.0000000  -0.0000000  -0.0000000  -0.0000000  -0.0000000  -0.0000000
 NQMom=    0.0000000   0.0000000   0.0000000   0.0000000   0.0000000   0.0000000   0.0000000   0.0000000   0.0000000   0.0000000
 NMagM=    0.0000000   0.0000000   0.0000000   0.0000000   0.0000000   0.0000000   0.0000000   0.0000000   0.0000000   0.0000000
 AtZNuc=   6.0000000   6.0000000   6.0000000   6.0000000   6.0000000   6.0000000   6.0000000   6.0000000   6.0000000   6.0000000

  Atom        11          12          13          14          15          16          17          18          19          20
 IAtWgt=           1           1           1           1           1          12          12          12          12          12
 AtmWgt=   1.0078250   1.0078250   1.0078250   1.0078250   1.0078250  12.0000000  12.0000000  12.0000000  12.0000000  12.0000000
 NucSpn=           1           1           1           1           1           0           0           0           0           0
 AtZEff=  -0.0000000  -0.0000000  -0.0000000  -0.0000000  -0.0000000  -0.0000000  -0.0000000  -0.0000000  -0.0000000  -0.0000000
 NQMom=    0.0000000   0.0000000   0.0000000   0.0000000   0.0000000   0.0000000   0.0000000   0.0000000   0.0000000   0.0000000
 NMagM=    2.7928460   2.7928460   2.7928460   2.7928460   2.7928460   0.0000000   0.0000000   0.0000000   0.0000000   0.0000000
 AtZNuc=   1.0000000   1.0000000   1.0000000   1.0000000   1.0000000   6.0000000   6.0000000   6.0000000   6.0000000   6.0000000

  Atom        21          22          23          24          25          26          27          28          29          30
 IAtWgt=          12          12          12          12          12           1           1           1           1           1
 AtmWgt=  12.0000000  12.0000000  12.0000000  12.0000000  12.0000000   1.0078250   1.0078250   1.0078250   1.0078250   1.0078250
 NucSpn=           0           0           0           0           0           1           1           1           1           1
 AtZEff=  -0.0000000  -0.0000000  -0.0000000  -0.0000000  -0.0000000  -0.0000000  -0.0000000  -0.0000000  -0.0000000  -0.0000000
 NQMom=    0.0000000   0.0000000   0.0000000   0.0000000   0.0000000   0.0000000   0.0000000   0.0000000   0.0000000   0.0000000
 NMagM=    0.0000000   0.0000000   0.0000000   0.0000000   0.0000000   2.7928460   2.7928460   2.7928460   2.7928460   2.7928460
 AtZNuc=   6.0000000   6.0000000   6.0000000   6.0000000   6.0000000   1.0000000   1.0000000   1.0000000   1.0000000   1.0000000

  Atom        31          32          33          34          35          36          37          38          39          40
 IAtWgt=           1          12          12          12          12          12          12          12          12          12
 AtmWgt=   1.0078250  12.0000000  12.0000000  12.0000000  12.0000000  12.0000000  12.0000000  12.0000000  12.0000000  12.0000000
 NucSpn=           1           0           0           0           0           0           0           0           0           0
 AtZEff=  -0.0000000  -0.0000000  -0.0000000  -0.0000000  -0.0000000  -0.0000000  -0.0000000  -0.0000000  -0.0000000  -0.0000000
 NQMom=    0.0000000   0.0000000   0.0000000   0.0000000   0.0000000   0.0000000   0.0000000   0.0000000   0.0000000   0.0000000
 NMagM=    2.7928460   0.0000000   0.0000000   0.0000000   0.0000000   0.0000000   0.0000000   0.0000000   0.0000000   0.0000000
 AtZNuc=   1.0000000   6.0000000   6.0000000   6.0000000   6.0000000   6.0000000   6.0000000   6.0000000   6.0000000   6.0000000

  Atom        41          42          43          44          45          46          47          48          49          50
 IAtWgt=          12           1           1           1           1          14          14          14          14          14
 AtmWgt=  12.0000000   1.0078250   1.0078250   1.0078250   1.0078250  14.0030740  14.0030740  14.0030740  14.0030740  14.0030740
 NucSpn=           0           1           1           1           1           2           2           2           2           2
 AtZEff=  -0.0000000  -0.0000000  -0.0000000  -0.0000000  -0.0000000  -0.0000000  -0.0000000  -0.0000000  -0.0000000  -0.0000000
 NQMom=    0.0000000   0.0000000   0.0000000   0.0000000   0.0000000   2.0440000   2.0440000   2.0440000   2.0440000   2.0440000
 NMagM=    0.0000000   2.7928460   2.7928460   2.7928460   2.7928460   0.4037610   0.4037610   0.4037610   0.4037610   0.4037610
 AtZNuc=   6.0000000   1.0000000   1.0000000   1.0000000   1.0000000   7.0000000   7.0000000   7.0000000   7.0000000   7.0000000

  Atom        51          52          53          54          55          56          57          58          59          60
 IAtWgt=          14         102          12          12          12          12          12          12           1           1
 AtmWgt=  14.0030740 101.9037000  12.0000000  12.0000000  12.0000000  12.0000000  12.0000000  12.0000000   1.0078250   1.0078250
 NucSpn=           2           0           0           0           0           0           0           0           1           1
 AtZEff=  -0.0000000  -0.0000000  -0.0000000  -0.0000000  -0.0000000  -0.0000000  -0.0000000  -0.0000000  -0.0000000  -0.0000000
 NQMom=    2.0440000   0.0000000   0.0000000   0.0000000   0.0000000   0.0000000   0.0000000   0.0000000   0.0000000   0.0000000
 NMagM=    0.4037610   0.0000000   0.0000000   0.0000000   0.0000000   0.0000000   0.0000000   0.0000000   2.7928460   2.7928460
 AtZNuc=   7.0000000  44.0000000   6.0000000   6.0000000   6.0000000   6.0000000   6.0000000   6.0000000   1.0000000   1.0000000

  Atom        61          62          63          64          65          66          67          68          69          70
 IAtWgt=           1           1           1           1           1           1          12          12           1           1
 AtmWgt=   1.0078250   1.0078250   1.0078250   1.0078250   1.0078250   1.0078250  12.0000000  12.0000000   1.0078250   1.0078250
 NucSpn=           1           1           1           1           1           1           0           0           1           1
 AtZEff=  -0.0000000  -0.0000000  -0.0000000  -0.0000000  -0.0000000  -0.0000000  -0.0000000  -0.0000000  -0.0000000  -0.0000000
 NQMom=    0.0000000   0.0000000   0.0000000   0.0000000   0.0000000   0.0000000   0.0000000   0.0000000   0.0000000   0.0000000
 NMagM=    2.7928460   2.7928460   2.7928460   2.7928460   2.7928460   2.7928460   0.0000000   0.0000000   2.7928460   2.7928460
 AtZNuc=   1.0000000   1.0000000   1.0000000   1.0000000   1.0000000   1.0000000   6.0000000   6.0000000   1.0000000   1.0000000

  Atom        71          72          73          74
 IAtWgt=          12           1           1           1
 AtmWgt=  12.0000000   1.0078250   1.0078250   1.0078250
 NucSpn=           0           1           1           1
 AtZEff=  -0.0000000  -0.0000000  -0.0000000  -0.0000000
 NQMom=    0.0000000   0.0000000   0.0000000   0.0000000
 NMagM=    0.0000000   2.7928460   2.7928460   2.7928460
 AtZNuc=   6.0000000   1.0000000   1.0000000   1.0000000
 Leave Link  101 at Mon Jan  8 11:01:27 2024, MaxMem=  2831155200 cpu:               0.1 elap:               0.1
 (Enter /opt/software/packages/g16/l103.exe)

 GradGradGradGradGradGradGradGradGradGradGradGradGradGradGradGradGradGrad
 Berny optimization.
 Initialization pass.
                           ----------------------------
                           !    Initial Parameters    !
                           ! (Angstroms and Degrees)  !
 --------------------------                            --------------------------
 ! Name  Definition              Value          Derivative Info.                !
 --------------------------------------------------------------------------------
 ! R1    R(1,5)                  1.4038         estimate D2E/DX2                !
 ! R2    R(1,6)                  1.4313         estimate D2E/DX2                !
 ! R3    R(1,49)                 1.3552         estimate D2E/DX2                !
 ! R4    R(2,3)                  1.4145         estimate D2E/DX2                !
 ! R5    R(2,11)                 1.0896         estimate D2E/DX2                !
 ! R6    R(2,49)                 1.3235         estimate D2E/DX2                !
 ! R7    R(3,4)                  1.3887         estimate D2E/DX2                !
 ! R8    R(3,67)                 1.4878         estimate D2E/DX2                !
 ! R9    R(4,5)                  1.4086         estimate D2E/DX2                !
 ! R10   R(4,12)                 1.0855         estimate D2E/DX2                !
 ! R11   R(5,56)                 1.4393         estimate D2E/DX2                !
 ! R12   R(6,10)                 1.4045         estimate D2E/DX2                !
 ! R13   R(6,47)                 1.3552         estimate D2E/DX2                !
 ! R14   R(7,8)                  1.403          estimate D2E/DX2                !
 ! R15   R(7,13)                 1.0921         estimate D2E/DX2                !
 ! R16   R(7,47)                 1.321          estimate D2E/DX2                !
 ! R17   R(8,9)                  1.3781         estimate D2E/DX2                !
 ! R18   R(8,14)                 1.0904         estimate D2E/DX2                !
 ! R19   R(9,10)                 1.4074         estimate D2E/DX2                !
 ! R20   R(9,15)                 1.0923         estimate D2E/DX2                !
 ! R21   R(10,55)                1.4456         estimate D2E/DX2                !
 ! R22   R(16,20)                1.4027         estimate D2E/DX2                !
 ! R23   R(16,21)                1.4347         estimate D2E/DX2                !
 ! R24   R(16,50)                1.3672         estimate D2E/DX2                !
 ! R25   R(17,18)                1.4082         estimate D2E/DX2                !
 ! R26   R(17,26)                1.0895         estimate D2E/DX2                !
 ! R27   R(17,50)                1.3199         estimate D2E/DX2                !
 ! R28   R(18,19)                1.3716         estimate D2E/DX2                !
 ! R29   R(18,27)                1.0945         estimate D2E/DX2                !
 ! R30   R(19,20)                1.4139         estimate D2E/DX2                !
 ! R31   R(19,28)                1.087          estimate D2E/DX2                !
 ! R32   R(20,58)                1.435          estimate D2E/DX2                !
 ! R33   R(21,25)                1.4024         estimate D2E/DX2                !
 ! R34   R(21,48)                1.3645         estimate D2E/DX2                !
 ! R35   R(22,23)                1.4098         estimate D2E/DX2                !
 ! R36   R(22,29)                1.091          estimate D2E/DX2                !
 ! R37   R(22,48)                1.3195         estimate D2E/DX2                !
 ! R38   R(23,24)                1.3748         estimate D2E/DX2                !
 ! R39   R(23,30)                1.0904         estimate D2E/DX2                !
 ! R40   R(24,25)                1.4116         estimate D2E/DX2                !
 ! R41   R(24,31)                1.0901         estimate D2E/DX2                !
 ! R42   R(25,57)                1.4355         estimate D2E/DX2                !
 ! R43   R(32,36)                1.4038         estimate D2E/DX2                !
 ! R44   R(32,37)                1.4348         estimate D2E/DX2                !
 ! R45   R(32,46)                1.3602         estimate D2E/DX2                !
 ! R46   R(33,34)                1.4042         estimate D2E/DX2                !
 ! R47   R(33,42)                1.0918         estimate D2E/DX2                !
 ! R48   R(33,46)                1.3229         estimate D2E/DX2                !
 ! R49   R(34,35)                1.3778         estimate D2E/DX2                !
 ! R50   R(34,65)                1.0886         estimate D2E/DX2                !
 ! R51   R(35,36)                1.4123         estimate D2E/DX2                !
 ! R52   R(35,43)                1.0929         estimate D2E/DX2                !
 ! R53   R(36,53)                1.4321         estimate D2E/DX2                !
 ! R54   R(37,41)                1.3996         estimate D2E/DX2                !
 ! R55   R(37,51)                1.3588         estimate D2E/DX2                !
 ! R56   R(38,39)                1.4025         estimate D2E/DX2                !
 ! R57   R(38,44)                1.0899         estimate D2E/DX2                !
 ! R58   R(38,51)                1.3355         estimate D2E/DX2                !
 ! R59   R(39,40)                1.3779         estimate D2E/DX2                !
 ! R60   R(39,66)                1.0874         estimate D2E/DX2                !
 ! R61   R(40,41)                1.4071         estimate D2E/DX2                !
 ! R62   R(40,45)                1.0968         estimate D2E/DX2                !
 ! R63   R(41,54)                1.4383         estimate D2E/DX2                !
 ! R64   R(46,52)                2.0817         estimate D2E/DX2                !
 ! R65   R(47,52)                2.0901         estimate D2E/DX2                !
 ! R66   R(48,52)                2.0783         estimate D2E/DX2                !
 ! R67   R(49,52)                2.0774         estimate D2E/DX2                !
 ! R68   R(50,52)                2.0738         estimate D2E/DX2                !
 ! R69   R(51,52)                2.0816         estimate D2E/DX2                !
 ! R70   R(53,54)                1.3557         estimate D2E/DX2                !
 ! R71   R(53,60)                1.0925         estimate D2E/DX2                !
 ! R72   R(54,59)                1.0915         estimate D2E/DX2                !
 ! R73   R(55,56)                1.3519         estimate D2E/DX2                !
 ! R74   R(55,62)                1.0916         estimate D2E/DX2                !
 ! R75   R(56,61)                1.0929         estimate D2E/DX2                !
 ! R76   R(57,58)                1.36           estimate D2E/DX2                !
 ! R77   R(57,64)                1.0939         estimate D2E/DX2                !
 ! R78   R(58,63)                1.0868         estimate D2E/DX2                !
 ! R79   R(67,68)                1.347          estimate D2E/DX2                !
 ! R80   R(67,71)                1.5175         estimate D2E/DX2                !
 ! R81   R(68,69)                1.0975         estimate D2E/DX2                !
 ! R82   R(68,70)                1.0973         estimate D2E/DX2                !
 ! R83   R(71,72)                1.1096         estimate D2E/DX2                !
 ! R84   R(71,73)                1.1092         estimate D2E/DX2                !
 ! R85   R(71,74)                1.0984         estimate D2E/DX2                !
 ! A1    A(5,1,6)              120.497          estimate D2E/DX2                !
 ! A2    A(5,1,49)             122.2535         estimate D2E/DX2                !
 ! A3    A(6,1,49)             117.2453         estimate D2E/DX2                !
 ! A4    A(3,2,11)             120.9288         estimate D2E/DX2                !
 ! A5    A(3,2,49)             123.6348         estimate D2E/DX2                !
 ! A6    A(11,2,49)            115.4362         estimate D2E/DX2                !
 ! A7    A(2,3,4)              116.9974         estimate D2E/DX2                !
 ! A8    A(2,3,67)             119.168          estimate D2E/DX2                !
 ! A9    A(4,3,67)             123.8237         estimate D2E/DX2                !
 ! A10   A(3,4,5)              120.5086         estimate D2E/DX2                !
 ! A11   A(3,4,12)             121.1634         estimate D2E/DX2                !
 ! A12   A(5,4,12)             118.3269         estimate D2E/DX2                !
 ! A13   A(1,5,4)              117.5848         estimate D2E/DX2                !
 ! A14   A(1,5,56)             118.5749         estimate D2E/DX2                !
 ! A15   A(4,5,56)             123.8363         estimate D2E/DX2                !
 ! A16   A(1,6,10)             119.9436         estimate D2E/DX2                !
 ! A17   A(1,6,47)             117.2308         estimate D2E/DX2                !
 ! A18   A(10,6,47)            122.8253         estimate D2E/DX2                !
 ! A19   A(8,7,13)             120.616          estimate D2E/DX2                !
 ! A20   A(8,7,47)             122.1743         estimate D2E/DX2                !
 ! A21   A(13,7,47)            117.2042         estimate D2E/DX2                !
 ! A22   A(7,8,9)              119.6866         estimate D2E/DX2                !
 ! A23   A(7,8,14)             119.0327         estimate D2E/DX2                !
 ! A24   A(9,8,14)             121.2806         estimate D2E/DX2                !
 ! A25   A(8,9,10)             118.9776         estimate D2E/DX2                !
 ! A26   A(8,9,15)             121.4752         estimate D2E/DX2                !
 ! A27   A(10,9,15)            119.5433         estimate D2E/DX2                !
 ! A28   A(6,10,9)             117.4458         estimate D2E/DX2                !
 ! A29   A(6,10,55)            118.635          estimate D2E/DX2                !
 ! A30   A(9,10,55)            123.919          estimate D2E/DX2                !
 ! A31   A(20,16,21)           120.1951         estimate D2E/DX2                !
 ! A32   A(20,16,50)           122.9255         estimate D2E/DX2                !
 ! A33   A(21,16,50)           116.8784         estimate D2E/DX2                !
 ! A34   A(18,17,26)           120.7581         estimate D2E/DX2                !
 ! A35   A(18,17,50)           122.2628         estimate D2E/DX2                !
 ! A36   A(26,17,50)           116.9787         estimate D2E/DX2                !
 ! A37   A(17,18,19)           119.805          estimate D2E/DX2                !
 ! A38   A(17,18,27)           118.8263         estimate D2E/DX2                !
 ! A39   A(19,18,27)           121.3687         estimate D2E/DX2                !
 ! A40   A(18,19,20)           119.1808         estimate D2E/DX2                !
 ! A41   A(18,19,28)           121.4976         estimate D2E/DX2                !
 ! A42   A(20,19,28)           119.3214         estimate D2E/DX2                !
 ! A43   A(16,20,19)           117.2532         estimate D2E/DX2                !
 ! A44   A(16,20,58)           118.899          estimate D2E/DX2                !
 ! A45   A(19,20,58)           123.8473         estimate D2E/DX2                !
 ! A46   A(16,21,25)           119.9219         estimate D2E/DX2                !
 ! A47   A(16,21,48)           117.054          estimate D2E/DX2                !
 ! A48   A(25,21,48)           123.0221         estimate D2E/DX2                !
 ! A49   A(23,22,29)           120.9716         estimate D2E/DX2                !
 ! A50   A(23,22,48)           122.0948         estimate D2E/DX2                !
 ! A51   A(29,22,48)           116.9298         estimate D2E/DX2                !
 ! A52   A(22,23,24)           119.6928         estimate D2E/DX2                !
 ! A53   A(22,23,30)           118.7674         estimate D2E/DX2                !
 ! A54   A(24,23,30)           121.5385         estimate D2E/DX2                !
 ! A55   A(23,24,25)           119.2711         estimate D2E/DX2                !
 ! A56   A(23,24,31)           120.9485         estimate D2E/DX2                !
 ! A57   A(25,24,31)           119.78           estimate D2E/DX2                !
 ! A58   A(21,25,24)           117.1725         estimate D2E/DX2                !
 ! A59   A(21,25,57)           118.9234         estimate D2E/DX2                !
 ! A60   A(24,25,57)           123.9034         estimate D2E/DX2                !
 ! A61   A(36,32,37)           119.861          estimate D2E/DX2                !
 ! A62   A(36,32,46)           123.2122         estimate D2E/DX2                !
 ! A63   A(37,32,46)           116.9211         estimate D2E/DX2                !
 ! A64   A(34,33,42)           121.0044         estimate D2E/DX2                !
 ! A65   A(34,33,46)           122.2279         estimate D2E/DX2                !
 ! A66   A(42,33,46)           116.7674         estimate D2E/DX2                !
 ! A67   A(33,34,35)           119.7695         estimate D2E/DX2                !
 ! A68   A(33,34,65)           118.9025         estimate D2E/DX2                !
 ! A69   A(35,34,65)           121.3279         estimate D2E/DX2                !
 ! A70   A(34,35,36)           119.1061         estimate D2E/DX2                !
 ! A71   A(34,35,43)           121.2294         estimate D2E/DX2                !
 ! A72   A(36,35,43)           119.6635         estimate D2E/DX2                !
 ! A73   A(32,36,35)           117.1006         estimate D2E/DX2                !
 ! A74   A(32,36,53)           118.9025         estimate D2E/DX2                !
 ! A75   A(35,36,53)           123.9948         estimate D2E/DX2                !
 ! A76   A(32,37,41)           120.2603         estimate D2E/DX2                !
 ! A77   A(32,37,51)           116.7781         estimate D2E/DX2                !
 ! A78   A(41,37,51)           122.9549         estimate D2E/DX2                !
 ! A79   A(39,38,44)           121.3899         estimate D2E/DX2                !
 ! A80   A(39,38,51)           122.0279         estimate D2E/DX2                !
 ! A81   A(44,38,51)           116.5808         estimate D2E/DX2                !
 ! A82   A(38,39,40)           119.4894         estimate D2E/DX2                !
 ! A83   A(38,39,66)           119.0266         estimate D2E/DX2                !
 ! A84   A(40,39,66)           121.4837         estimate D2E/DX2                !
 ! A85   A(39,40,41)           119.4399         estimate D2E/DX2                !
 ! A86   A(39,40,45)           120.9304         estimate D2E/DX2                !
 ! A87   A(41,40,45)           119.6283         estimate D2E/DX2                !
 ! A88   A(37,41,40)           117.4635         estimate D2E/DX2                !
 ! A89   A(37,41,54)           118.7424         estimate D2E/DX2                !
 ! A90   A(40,41,54)           123.7941         estimate D2E/DX2                !
 ! A91   A(32,46,33)           118.5795         estimate D2E/DX2                !
 ! A92   A(32,46,52)           113.3139         estimate D2E/DX2                !
 ! A93   A(33,46,52)           128.1063         estimate D2E/DX2                !
 ! A94   A(6,47,7)             118.8871         estimate D2E/DX2                !
 ! A95   A(6,47,52)            112.6757         estimate D2E/DX2                !
 ! A96   A(7,47,52)            128.4228         estimate D2E/DX2                !
 ! A97   A(21,48,22)           118.7434         estimate D2E/DX2                !
 ! A98   A(21,48,52)           112.8622         estimate D2E/DX2                !
 ! A99   A(22,48,52)           128.3755         estimate D2E/DX2                !
 ! A100  A(1,49,2)             119.0068         estimate D2E/DX2                !
 ! A101  A(1,49,52)            113.0895         estimate D2E/DX2                !
 ! A102  A(2,49,52)            127.8747         estimate D2E/DX2                !
 ! A103  A(16,50,17)           118.5722         estimate D2E/DX2                !
 ! A104  A(16,50,52)           112.9993         estimate D2E/DX2                !
 ! A105  A(17,50,52)           128.3991         estimate D2E/DX2                !
 ! A106  A(37,51,38)           118.6204         estimate D2E/DX2                !
 ! A107  A(37,51,52)           113.4453         estimate D2E/DX2                !
 ! A108  A(38,51,52)           127.9242         estimate D2E/DX2                !
 ! A109  A(46,52,47)            95.661          estimate D2E/DX2                !
 ! A110  A(46,52,48)            96.3589         estimate D2E/DX2                !
 ! A111  A(46,52,50)            90.107          estimate D2E/DX2                !
 ! A112  A(46,52,51)            79.529          estimate D2E/DX2                !
 ! A113  A(47,52,48)            96.2167         estimate D2E/DX2                !
 ! A114  A(47,52,49)            79.7512         estimate D2E/DX2                !
 ! A115  A(47,52,51)            88.4931         estimate D2E/DX2                !
 ! A116  A(48,52,49)            88.1187         estimate D2E/DX2                !
 ! A117  A(48,52,50)            80.1594         estimate D2E/DX2                !
 ! A118  A(49,52,50)            94.6926         estimate D2E/DX2                !
 ! A119  A(49,52,51)            96.301          estimate D2E/DX2                !
 ! A120  A(50,52,51)            95.4837         estimate D2E/DX2                !
 ! A121  A(36,53,54)           121.2264         estimate D2E/DX2                !
 ! A122  A(36,53,60)           117.9744         estimate D2E/DX2                !
 ! A123  A(54,53,60)           120.799          estimate D2E/DX2                !
 ! A124  A(41,54,53)           121.0046         estimate D2E/DX2                !
 ! A125  A(41,54,59)           118.429          estimate D2E/DX2                !
 ! A126  A(53,54,59)           120.5664         estimate D2E/DX2                !
 ! A127  A(10,55,56)           121.1438         estimate D2E/DX2                !
 ! A128  A(10,55,62)           117.9907         estimate D2E/DX2                !
 ! A129  A(56,55,62)           120.8608         estimate D2E/DX2                !
 ! A130  A(5,56,55)            121.1876         estimate D2E/DX2                !
 ! A131  A(5,56,61)            118.0036         estimate D2E/DX2                !
 ! A132  A(55,56,61)           120.8087         estimate D2E/DX2                !
 ! A133  A(25,57,58)           121.1432         estimate D2E/DX2                !
 ! A134  A(25,57,64)           118.018          estimate D2E/DX2                !
 ! A135  A(58,57,64)           120.8349         estimate D2E/DX2                !
 ! A136  A(20,58,57)           120.9154         estimate D2E/DX2                !
 ! A137  A(20,58,63)           118.526          estimate D2E/DX2                !
 ! A138  A(57,58,63)           120.5574         estimate D2E/DX2                !
 ! A139  A(3,67,68)            121.2184         estimate D2E/DX2                !
 ! A140  A(3,67,71)            118.071          estimate D2E/DX2                !
 ! A141  A(68,67,71)           120.7106         estimate D2E/DX2                !
 ! A142  A(67,68,69)           123.5045         estimate D2E/DX2                !
 ! A143  A(67,68,70)           119.5666         estimate D2E/DX2                !
 ! A144  A(69,68,70)           116.9261         estimate D2E/DX2                !
 ! A145  A(67,71,72)           111.256          estimate D2E/DX2                !
 ! A146  A(67,71,73)           111.2292         estimate D2E/DX2                !
 ! A147  A(67,71,74)           111.3091         estimate D2E/DX2                !
 ! A148  A(72,71,73)           106.9346         estimate D2E/DX2                !
 ! A149  A(72,71,74)           108.3242         estimate D2E/DX2                !
 ! A150  A(73,71,74)           107.5959         estimate D2E/DX2                !
 ! A151  L(46,52,49,47,-1)     175.4122         estimate D2E/DX2                !
 ! A152  L(47,52,50,46,-1)     185.768          estimate D2E/DX2                !
 ! A153  L(48,52,51,46,-1)     175.8879         estimate D2E/DX2                !
 ! A154  L(46,52,49,47,-2)     183.9985         estimate D2E/DX2                !
 ! A155  L(47,52,50,46,-2)     182.9668         estimate D2E/DX2                !
 ! A156  L(48,52,51,46,-2)     184.333          estimate D2E/DX2                !
 ! D1    D(6,1,5,4)            177.9948         estimate D2E/DX2                !
 ! D2    D(6,1,5,56)            -1.3048         estimate D2E/DX2                !
 ! D3    D(49,1,5,4)            -1.2399         estimate D2E/DX2                !
 ! D4    D(49,1,5,56)          179.4605         estimate D2E/DX2                !
 ! D5    D(5,1,6,10)             1.3077         estimate D2E/DX2                !
 ! D6    D(5,1,6,47)          -178.4626         estimate D2E/DX2                !
 ! D7    D(49,1,6,10)         -179.4203         estimate D2E/DX2                !
 ! D8    D(49,1,6,47)            0.8095         estimate D2E/DX2                !
 ! D9    D(5,1,49,2)             0.8717         estimate D2E/DX2                !
 ! D10   D(5,1,49,52)          179.068          estimate D2E/DX2                !
 ! D11   D(6,1,49,2)          -178.3866         estimate D2E/DX2                !
 ! D12   D(6,1,49,52)           -0.1903         estimate D2E/DX2                !
 ! D13   D(11,2,3,4)           179.226          estimate D2E/DX2                !
 ! D14   D(11,2,3,67)           -1.9341         estimate D2E/DX2                !
 ! D15   D(49,2,3,4)            -0.946          estimate D2E/DX2                !
 ! D16   D(49,2,3,67)          177.8939         estimate D2E/DX2                !
 ! D17   D(3,2,49,1)             0.2605         estimate D2E/DX2                !
 ! D18   D(3,2,49,52)         -177.6374         estimate D2E/DX2                !
 ! D19   D(11,2,49,1)         -179.9029         estimate D2E/DX2                !
 ! D20   D(11,2,49,52)           2.1992         estimate D2E/DX2                !
 ! D21   D(2,3,4,5)              0.5194         estimate D2E/DX2                !
 ! D22   D(2,3,4,12)          -179.8603         estimate D2E/DX2                !
 ! D23   D(67,3,4,5)          -178.2612         estimate D2E/DX2                !
 ! D24   D(67,3,4,12)            1.359          estimate D2E/DX2                !
 ! D25   D(2,3,67,68)          172.8176         estimate D2E/DX2                !
 ! D26   D(2,3,67,71)           -7.1622         estimate D2E/DX2                !
 ! D27   D(4,3,67,68)           -8.4267         estimate D2E/DX2                !
 ! D28   D(4,3,67,71)          171.5935         estimate D2E/DX2                !
 ! D29   D(3,4,5,1)              0.5007         estimate D2E/DX2                !
 ! D30   D(3,4,5,56)           179.7601         estimate D2E/DX2                !
 ! D31   D(12,4,5,1)          -179.1302         estimate D2E/DX2                !
 ! D32   D(12,4,5,56)            0.1293         estimate D2E/DX2                !
 ! D33   D(1,5,56,55)            0.2339         estimate D2E/DX2                !
 ! D34   D(1,5,56,61)         -179.7201         estimate D2E/DX2                !
 ! D35   D(4,5,56,55)         -179.0187         estimate D2E/DX2                !
 ! D36   D(4,5,56,61)            1.0273         estimate D2E/DX2                !
 ! D37   D(1,6,10,9)           179.6017         estimate D2E/DX2                !
 ! D38   D(1,6,10,55)           -0.238          estimate D2E/DX2                !
 ! D39   D(47,6,10,9)           -0.6414         estimate D2E/DX2                !
 ! D40   D(47,6,10,55)         179.5188         estimate D2E/DX2                !
 ! D41   D(1,6,47,7)          -179.7216         estimate D2E/DX2                !
 ! D42   D(1,6,47,52)           -0.9884         estimate D2E/DX2                !
 ! D43   D(10,6,47,7)            0.5153         estimate D2E/DX2                !
 ! D44   D(10,6,47,52)         179.2486         estimate D2E/DX2                !
 ! D45   D(13,7,8,9)           179.3751         estimate D2E/DX2                !
 ! D46   D(13,7,8,14)           -0.5546         estimate D2E/DX2                !
 ! D47   D(47,7,8,9)             0.257          estimate D2E/DX2                !
 ! D48   D(47,7,8,14)         -179.6727         estimate D2E/DX2                !
 ! D49   D(8,7,47,6)            -0.3099         estimate D2E/DX2                !
 ! D50   D(8,7,47,52)         -178.8179         estimate D2E/DX2                !
 ! D51   D(13,7,47,6)         -179.4565         estimate D2E/DX2                !
 ! D52   D(13,7,47,52)           2.0355         estimate D2E/DX2                !
 ! D53   D(7,8,9,10)            -0.3848         estimate D2E/DX2                !
 ! D54   D(7,8,9,15)          -179.6637         estimate D2E/DX2                !
 ! D55   D(14,8,9,10)          179.5432         estimate D2E/DX2                !
 ! D56   D(14,8,9,15)            0.2643         estimate D2E/DX2                !
 ! D57   D(8,9,10,6)             0.5614         estimate D2E/DX2                !
 ! D58   D(8,9,10,55)         -179.6081         estimate D2E/DX2                !
 ! D59   D(15,9,10,6)          179.8545         estimate D2E/DX2                !
 ! D60   D(15,9,10,55)          -0.315          estimate D2E/DX2                !
 ! D61   D(6,10,55,56)          -0.8359         estimate D2E/DX2                !
 ! D62   D(6,10,55,62)         179.9509         estimate D2E/DX2                !
 ! D63   D(9,10,55,56)         179.3355         estimate D2E/DX2                !
 ! D64   D(9,10,55,62)           0.1223         estimate D2E/DX2                !
 ! D65   D(21,16,20,19)       -179.8037         estimate D2E/DX2                !
 ! D66   D(21,16,20,58)         -0.0493         estimate D2E/DX2                !
 ! D67   D(50,16,20,19)         -0.1852         estimate D2E/DX2                !
 ! D68   D(50,16,20,58)        179.5692         estimate D2E/DX2                !
 ! D69   D(20,16,21,25)         -0.0746         estimate D2E/DX2                !
 ! D70   D(20,16,21,48)        179.4345         estimate D2E/DX2                !
 ! D71   D(50,16,21,25)       -179.7156         estimate D2E/DX2                !
 ! D72   D(50,16,21,48)         -0.2066         estimate D2E/DX2                !
 ! D73   D(20,16,50,17)          0.29           estimate D2E/DX2                !
 ! D74   D(20,16,50,52)       -177.9023         estimate D2E/DX2                !
 ! D75   D(21,16,50,17)        179.9204         estimate D2E/DX2                !
 ! D76   D(21,16,50,52)          1.728          estimate D2E/DX2                !
 ! D77   D(26,17,18,19)        179.7157         estimate D2E/DX2                !
 ! D78   D(26,17,18,27)         -0.3515         estimate D2E/DX2                !
 ! D79   D(50,17,18,19)         -0.0475         estimate D2E/DX2                !
 ! D80   D(50,17,18,27)        179.8853         estimate D2E/DX2                !
 ! D81   D(18,17,50,16)         -0.1698         estimate D2E/DX2                !
 ! D82   D(18,17,50,52)        177.7069         estimate D2E/DX2                !
 ! D83   D(26,17,50,16)       -179.9415         estimate D2E/DX2                !
 ! D84   D(26,17,50,52)         -2.0648         estimate D2E/DX2                !
 ! D85   D(17,18,19,20)          0.1505         estimate D2E/DX2                !
 ! D86   D(17,18,19,28)       -179.7022         estimate D2E/DX2                !
 ! D87   D(27,18,19,20)       -179.7806         estimate D2E/DX2                !
 ! D88   D(27,18,19,28)          0.3667         estimate D2E/DX2                !
 ! D89   D(18,19,20,16)         -0.0386         estimate D2E/DX2                !
 ! D90   D(18,19,20,58)       -179.7797         estimate D2E/DX2                !
 ! D91   D(28,19,20,16)        179.8173         estimate D2E/DX2                !
 ! D92   D(28,19,20,58)          0.0762         estimate D2E/DX2                !
 ! D93   D(16,20,58,57)          0.3723         estimate D2E/DX2                !
 ! D94   D(16,20,58,63)        179.9728         estimate D2E/DX2                !
 ! D95   D(19,20,58,57)       -179.8906         estimate D2E/DX2                !
 ! D96   D(19,20,58,63)         -0.2901         estimate D2E/DX2                !
 ! D97   D(16,21,25,24)       -179.8037         estimate D2E/DX2                !
 ! D98   D(16,21,25,57)         -0.1052         estimate D2E/DX2                !
 ! D99   D(48,21,25,24)          0.7177         estimate D2E/DX2                !
 ! D100  D(48,21,25,57)       -179.5838         estimate D2E/DX2                !
 ! D101  D(16,21,48,22)       -179.9685         estimate D2E/DX2                !
 ! D102  D(16,21,48,52)         -1.4198         estimate D2E/DX2                !
 ! D103  D(25,21,48,22)         -0.476          estimate D2E/DX2                !
 ! D104  D(25,21,48,52)        178.0727         estimate D2E/DX2                !
 ! D105  D(29,22,23,24)        179.415          estimate D2E/DX2                !
 ! D106  D(29,22,23,30)         -0.1878         estimate D2E/DX2                !
 ! D107  D(48,22,23,24)          0.1459         estimate D2E/DX2                !
 ! D108  D(48,22,23,30)       -179.4569         estimate D2E/DX2                !
 ! D109  D(23,22,48,21)          0.0279         estimate D2E/DX2                !
 ! D110  D(23,22,48,52)       -178.2662         estimate D2E/DX2                !
 ! D111  D(29,22,48,21)       -179.2692         estimate D2E/DX2                !
 ! D112  D(29,22,48,52)          2.4367         estimate D2E/DX2                !
 ! D113  D(22,23,24,25)          0.1146         estimate D2E/DX2                !
 ! D114  D(22,23,24,31)        179.8634         estimate D2E/DX2                !
 ! D115  D(30,23,24,25)        179.7061         estimate D2E/DX2                !
 ! D116  D(30,23,24,31)         -0.5451         estimate D2E/DX2                !
 ! D117  D(23,24,25,21)         -0.5172         estimate D2E/DX2                !
 ! D118  D(23,24,25,57)        179.8007         estimate D2E/DX2                !
 ! D119  D(31,24,25,21)        179.731          estimate D2E/DX2                !
 ! D120  D(31,24,25,57)          0.0489         estimate D2E/DX2                !
 ! D121  D(21,25,57,58)          0.4299         estimate D2E/DX2                !
 ! D122  D(21,25,57,64)        179.7192         estimate D2E/DX2                !
 ! D123  D(24,25,57,58)       -179.8932         estimate D2E/DX2                !
 ! D124  D(24,25,57,64)         -0.6039         estimate D2E/DX2                !
 ! D125  D(37,32,36,35)       -179.9001         estimate D2E/DX2                !
 ! D126  D(37,32,36,53)          0.606          estimate D2E/DX2                !
 ! D127  D(46,32,36,35)         -0.7988         estimate D2E/DX2                !
 ! D128  D(46,32,36,53)        179.7074         estimate D2E/DX2                !
 ! D129  D(36,32,37,41)         -0.6037         estimate D2E/DX2                !
 ! D130  D(36,32,37,51)       -179.6886         estimate D2E/DX2                !
 ! D131  D(46,32,37,41)       -179.7605         estimate D2E/DX2                !
 ! D132  D(46,32,37,51)          1.1546         estimate D2E/DX2                !
 ! D133  D(36,32,46,33)          0.6136         estimate D2E/DX2                !
 ! D134  D(36,32,46,52)       -179.5634         estimate D2E/DX2                !
 ! D135  D(37,32,46,33)        179.7395         estimate D2E/DX2                !
 ! D136  D(37,32,46,52)         -0.4374         estimate D2E/DX2                !
 ! D137  D(42,33,34,35)        179.7837         estimate D2E/DX2                !
 ! D138  D(42,33,34,65)         -0.1195         estimate D2E/DX2                !
 ! D139  D(46,33,34,35)         -0.0071         estimate D2E/DX2                !
 ! D140  D(46,33,34,65)       -179.9104         estimate D2E/DX2                !
 ! D141  D(34,33,46,32)         -0.1916         estimate D2E/DX2                !
 ! D142  D(34,33,46,52)       -179.9851         estimate D2E/DX2                !
 ! D143  D(42,33,46,32)       -179.9908         estimate D2E/DX2                !
 ! D144  D(42,33,46,52)          0.2157         estimate D2E/DX2                !
 ! D145  D(33,34,35,36)         -0.1925         estimate D2E/DX2                !
 ! D146  D(33,34,35,43)       -179.8275         estimate D2E/DX2                !
 ! D147  D(65,34,35,36)        179.7083         estimate D2E/DX2                !
 ! D148  D(65,34,35,43)          0.0734         estimate D2E/DX2                !
 ! D149  D(34,35,36,32)          0.5661         estimate D2E/DX2                !
 ! D150  D(34,35,36,53)       -179.9683         estimate D2E/DX2                !
 ! D151  D(43,35,36,32)       -179.7931         estimate D2E/DX2                !
 ! D152  D(43,35,36,53)         -0.3275         estimate D2E/DX2                !
 ! D153  D(32,36,53,54)         -0.3751         estimate D2E/DX2                !
 ! D154  D(32,36,53,60)        179.7848         estimate D2E/DX2                !
 ! D155  D(35,36,53,54)       -179.8317         estimate D2E/DX2                !
 ! D156  D(35,36,53,60)          0.3283         estimate D2E/DX2                !
 ! D157  D(32,37,41,40)       -179.655          estimate D2E/DX2                !
 ! D158  D(32,37,41,54)          0.3463         estimate D2E/DX2                !
 ! D159  D(51,37,41,40)         -0.6286         estimate D2E/DX2                !
 ! D160  D(51,37,41,54)        179.3727         estimate D2E/DX2                !
 ! D161  D(32,37,51,38)        179.7996         estimate D2E/DX2                !
 ! D162  D(32,37,51,52)         -1.2629         estimate D2E/DX2                !
 ! D163  D(41,37,51,38)          0.7415         estimate D2E/DX2                !
 ! D164  D(41,37,51,52)        179.6791         estimate D2E/DX2                !
 ! D165  D(44,38,39,40)        179.8273         estimate D2E/DX2                !
 ! D166  D(44,38,39,66)         -0.3637         estimate D2E/DX2                !
 ! D167  D(51,38,39,40)          0.2662         estimate D2E/DX2                !
 ! D168  D(51,38,39,66)       -179.9248         estimate D2E/DX2                !
 ! D169  D(39,38,51,37)         -0.5469         estimate D2E/DX2                !
 ! D170  D(39,38,51,52)       -179.3112         estimate D2E/DX2                !
 ! D171  D(44,38,51,37)        179.872          estimate D2E/DX2                !
 ! D172  D(44,38,51,52)          1.1077         estimate D2E/DX2                !
 ! D173  D(38,39,40,41)         -0.1512         estimate D2E/DX2                !
 ! D174  D(38,39,40,45)       -179.7184         estimate D2E/DX2                !
 ! D175  D(66,39,40,41)       -179.9554         estimate D2E/DX2                !
 ! D176  D(66,39,40,45)          0.4774         estimate D2E/DX2                !
 ! D177  D(39,40,41,37)          0.3208         estimate D2E/DX2                !
 ! D178  D(39,40,41,54)       -179.6806         estimate D2E/DX2                !
 ! D179  D(45,40,41,37)        179.8937         estimate D2E/DX2                !
 ! D180  D(45,40,41,54)         -0.1077         estimate D2E/DX2                !
 ! D181  D(37,41,54,53)         -0.11           estimate D2E/DX2                !
 ! D182  D(37,41,54,59)        179.8419         estimate D2E/DX2                !
 ! D183  D(40,41,54,53)        179.8913         estimate D2E/DX2                !
 ! D184  D(40,41,54,59)         -0.1567         estimate D2E/DX2                !
 ! D185  D(32,46,52,47)         87.2329         estimate D2E/DX2                !
 ! D186  D(32,46,52,48)       -175.8438         estimate D2E/DX2                !
 ! D187  D(32,46,52,50)        -95.7339         estimate D2E/DX2                !
 ! D188  D(32,46,52,51)         -0.1768         estimate D2E/DX2                !
 ! D189  D(33,46,52,47)        -92.9646         estimate D2E/DX2                !
 ! D190  D(33,46,52,48)          3.9587         estimate D2E/DX2                !
 ! D191  D(33,46,52,50)         84.0686         estimate D2E/DX2                !
 ! D192  D(33,46,52,51)        179.6257         estimate D2E/DX2                !
 ! D193  D(6,47,52,46)        -175.33           estimate D2E/DX2                !
 ! D194  D(6,47,52,48)          87.6189         estimate D2E/DX2                !
 ! D195  D(6,47,52,49)           0.6716         estimate D2E/DX2                !
 ! D196  D(6,47,52,51)         -96.0085         estimate D2E/DX2                !
 ! D197  D(7,47,52,46)           3.2543         estimate D2E/DX2                !
 ! D198  D(7,47,52,48)         -93.7969         estimate D2E/DX2                !
 ! D199  D(7,47,52,49)         179.2558         estimate D2E/DX2                !
 ! D200  D(7,47,52,51)          82.5757         estimate D2E/DX2                !
 ! D201  D(21,48,52,46)         90.7808         estimate D2E/DX2                !
 ! D202  D(21,48,52,47)       -172.7898         estimate D2E/DX2                !
 ! D203  D(21,48,52,49)        -93.3139         estimate D2E/DX2                !
 ! D204  D(21,48,52,50)          1.7791         estimate D2E/DX2                !
 ! D205  D(22,48,52,46)        -90.8424         estimate D2E/DX2                !
 ! D206  D(22,48,52,47)          5.587          estimate D2E/DX2                !
 ! D207  D(22,48,52,49)         85.0629         estimate D2E/DX2                !
 ! D208  D(22,48,52,50)       -179.8441         estimate D2E/DX2                !
 ! D209  D(1,49,52,47)          -0.2544         estimate D2E/DX2                !
 ! D210  D(1,49,52,48)         -96.9183         estimate D2E/DX2                !
 ! D211  D(1,49,52,50)        -176.882          estimate D2E/DX2                !
 ! D212  D(1,49,52,51)          87.0602         estimate D2E/DX2                !
 ! D213  D(2,49,52,47)         177.7471         estimate D2E/DX2                !
 ! D214  D(2,49,52,48)          81.0833         estimate D2E/DX2                !
 ! D215  D(2,49,52,50)           1.1195         estimate D2E/DX2                !
 ! D216  D(2,49,52,51)         -94.9382         estimate D2E/DX2                !
 ! D217  D(16,50,52,46)        -98.3237         estimate D2E/DX2                !
 ! D218  D(16,50,52,48)         -1.8881         estimate D2E/DX2                !
 ! D219  D(16,50,52,49)         85.3796         estimate D2E/DX2                !
 ! D220  D(16,50,52,51)       -177.8144         estimate D2E/DX2                !
 ! D221  D(17,50,52,46)         83.702          estimate D2E/DX2                !
 ! D222  D(17,50,52,48)       -179.8624         estimate D2E/DX2                !
 ! D223  D(17,50,52,49)        -92.5947         estimate D2E/DX2                !
 ! D224  D(17,50,52,51)          4.2113         estimate D2E/DX2                !
 ! D225  D(37,51,52,46)          0.7825         estimate D2E/DX2                !
 ! D226  D(37,51,52,47)        -95.2567         estimate D2E/DX2                !
 ! D227  D(37,51,52,49)       -174.7721         estimate D2E/DX2                !
 ! D228  D(37,51,52,50)         89.8752         estimate D2E/DX2                !
 ! D229  D(38,51,52,46)        179.6002         estimate D2E/DX2                !
 ! D230  D(38,51,52,47)         83.561          estimate D2E/DX2                !
 ! D231  D(38,51,52,49)          4.0456         estimate D2E/DX2                !
 ! D232  D(38,51,52,50)        -91.3071         estimate D2E/DX2                !
 ! D233  D(36,53,54,41)          0.1237         estimate D2E/DX2                !
 ! D234  D(36,53,54,59)       -179.8272         estimate D2E/DX2                !
 ! D235  D(60,53,54,41)        179.9593         estimate D2E/DX2                !
 ! D236  D(60,53,54,59)          0.0084         estimate D2E/DX2                !
 ! D237  D(10,55,56,5)           0.8421         estimate D2E/DX2                !
 ! D238  D(10,55,56,61)       -179.2052         estimate D2E/DX2                !
 ! D239  D(62,55,56,5)        -179.9673         estimate D2E/DX2                !
 ! D240  D(62,55,56,61)         -0.0146         estimate D2E/DX2                !
 ! D241  D(25,57,58,20)         -0.5655         estimate D2E/DX2                !
 ! D242  D(25,57,58,63)        179.8422         estimate D2E/DX2                !
 ! D243  D(64,57,58,20)       -179.8349         estimate D2E/DX2                !
 ! D244  D(64,57,58,63)          0.5728         estimate D2E/DX2                !
 ! D245  D(3,67,68,69)          -0.3355         estimate D2E/DX2                !
 ! D246  D(3,67,68,70)         179.034          estimate D2E/DX2                !
 ! D247  D(71,67,68,69)        179.6438         estimate D2E/DX2                !
 ! D248  D(71,67,68,70)         -0.9867         estimate D2E/DX2                !
 ! D249  D(3,67,71,72)         -55.6122         estimate D2E/DX2                !
 ! D250  D(3,67,71,73)          63.4924         estimate D2E/DX2                !
 ! D251  D(3,67,71,74)        -176.5317         estimate D2E/DX2                !
 ! D252  D(68,67,71,72)        124.4079         estimate D2E/DX2                !
 ! D253  D(68,67,71,73)       -116.4874         estimate D2E/DX2                !
 ! D254  D(68,67,71,74)          3.4884         estimate D2E/DX2                !
 --------------------------------------------------------------------------------
 Trust Radius=3.00D-01 FncErr=5.00D-06 GrdErr=5.00D-06 EigMax=2.50D+02 EigMin=1.00D-04
 Number of steps in this run=    444 maximum allowed number of steps=    444.
 GradGradGradGradGradGradGradGradGradGradGradGradGradGradGradGradGradGrad

 Leave Link  103 at Mon Jan  8 11:01:28 2024, MaxMem=  2831155200 cpu:               0.0 elap:               0.0
 (Enter /opt/software/packages/g16/l202.exe)
 Symmetry turned off by external request.
 Stoichiometry    C39H28N6Ru
                          Input orientation:                          
 ---------------------------------------------------------------------
 Center     Atomic      Atomic             Coordinates (Angstroms)
 Number     Number       Type             X           Y           Z
 ---------------------------------------------------------------------
      1          6           0       -1.657064   -2.057333    0.247025
      2          6           0       -2.423202   -0.321994   -1.067922
      3          6           0       -3.660062   -0.963314   -1.312302
      4          6           0       -3.845087   -2.214959   -0.739970
      5          6           0       -2.836043   -2.794539    0.053871
      6          6           0       -0.608853   -2.567965    1.077197
      7          6           0        1.476157   -2.229200    1.998608
      8          6           0        1.427844   -3.476514    2.639148
      9          6           0        0.320979   -4.282201    2.481666
     10          6           0       -0.745127   -3.827728    1.683124
     11          1           0       -2.205240    0.656008   -1.496039
     12          1           0       -4.767562   -2.768353   -0.885447
     13          1           0        2.341396   -1.574210    2.121095
     14          1           0        2.271880   -3.788069    3.255244
     15          1           0        0.250204   -5.256172    2.971129
     16          6           0       -0.678593    2.694106   -0.097883
     17          6           0        0.338742    2.088215   -2.081611
     18          6           0       -0.007362    3.322996   -2.663423
     19          6           0       -0.706375    4.249170   -1.932060
     20          6           0       -1.065622    3.945970   -0.598599
     21          6           0       -1.013796    2.319399    1.245789
     22          6           0       -0.907340    0.703481    2.892521
     23          6           0       -1.615002    1.534570    3.784785
     24          6           0       -2.024153    2.781405    3.374939
     25          6           0       -1.729158    3.207625    2.061952
     26          1           0        0.889729    1.339531   -2.649779
     27          1           0        0.292076    3.521628   -3.697284
     28          1           0       -0.991907    5.208864   -2.355198
     29          1           0       -0.564542   -0.285938    3.198856
     30          1           0       -1.818799    1.169891    4.791983
     31          1           0       -2.574448    3.439882    4.047124
     32          6           0        3.236074    0.203958   -0.204610
     33          6           0        2.658545    1.434130    1.659533
     34          6           0        3.998790    1.798714    1.865837
     35          6           0        4.972287    1.342344    1.004248
     36          6           0        4.600102    0.508538   -0.073229
     37          6           0        2.792575   -0.639832   -1.276975
     38          6           0        1.005034   -1.666212   -2.335100
     39          6           0        1.860357   -2.220199   -3.298651
     40          6           0        3.212796   -1.965111   -3.232041
     41          6           0        3.712860   -1.150065   -2.199746
     42          1           0        1.871404    1.781333    2.331747
     43          1           0        6.022881    1.608972    1.143980
     44          1           0       -0.069792   -1.845424   -2.359854
     45          1           0        3.902497   -2.382445   -3.975745
     46          7           0        2.285116    0.657832    0.655547
     47          7           0        0.486462   -1.787487    1.243385
     48          7           0       -0.616011    1.082600    1.662738
     49          7           0       -1.463125   -0.841802   -0.319819
     50          7           0        0.014336    1.778718   -0.840243
     51          7           0        1.458619   -0.888480   -1.348751
     52         44           0        0.365733    0.007522    0.179536
     53          6           0        5.523576   -0.024594   -1.029236
     54          6           0        5.103711   -0.817970   -2.045252
     55          6           0       -1.957816   -4.580002    1.452235
     56          6           0       -2.953431   -4.083021    0.684508
     57          6           0       -2.111446    4.484842    1.529835
     58          6           0       -1.799221    4.837240    0.253918
     59          1           0        5.817339   -1.220799   -2.766275
     60          1           0        6.580955    0.224981   -0.914679
     61          1           0       -3.873317   -4.650969    0.524085
     62          1           0       -2.052297   -5.558150    1.927613
     63          1           0       -2.095616    5.805729   -0.140044
     64          1           0       -2.673033    5.164185    2.177687
     65          1           0        4.245750    2.439225    2.710723
     66          1           0        1.438341   -2.845772   -4.081526
     67          6           0       -4.688632   -0.266883   -2.131221
     68          6           0       -5.820253   -0.891789   -2.509711
     69          1           0       -6.052965   -1.932701   -2.251282
     70          1           0       -6.567940   -0.347312   -3.100084
     71          6           0       -4.427713    1.173486   -2.531378
     72          1           0       -4.233286    1.808940   -1.642796
     73          1           0       -3.536424    1.253098   -3.186765
     74          1           0       -5.281048    1.596620   -3.078491
 ---------------------------------------------------------------------
 Rotational constants (GHZ):           0.0897995           0.0764697           0.0627594
 Leave Link  202 at Mon Jan  8 11:01:28 2024, MaxMem=  2831155200 cpu:               0.1 elap:               0.0
 (Enter /opt/software/packages/g16/l301.exe)
 Standard basis: def2SVP (5D, 7F)
 Ernie: Thresh=  0.10000D-02 Tol=  0.10000D-05 Strict=F.
   801 basis functions,  1386 primitive gaussians,   851 cartesian basis functions
   159 alpha electrons      159 beta electrons
       nuclear repulsion energy      6044.0377787927 Hartrees.
 IExCor=20419 DFT=T Ex+Corr=CAM-B3LYP ExCW=0 ScaHFX=  1.000000
 ScaDFX=  1.000000  1.000000  1.000000  0.810000 ScalE2=  1.000000  1.000000
 IRadAn=      5 IRanWt=     -1 IRanGd=            0 ICorTp=0 IEmpDi=141
 HFx  wShort=  0.000000 wLong=  0.330000 cFull=  0.190000 cShort=  0.000000 cLong=  0.460000
 DFx  wShort=  0.000000 wLong=  0.330000 cFull=  0.190000 cShort=  0.000000 cLong=  0.460000
 NAtoms=   74 NActive=   74 NUniq=   74 SFac= 1.00D+00 NAtFMM=   60 NAOKFM=T Big=T
 Integral buffers will be    131072 words long.
 Raffenetti 2 integral format.
 Two-electron integral symmetry is turned off.
 R6Disp:  Grimme-D3(BJ) Dispersion energy=       -0.1213898545 Hartrees.
 Nuclear repulsion after empirical dispersion term =     6043.9163889382 Hartrees.
 ------------------------------------------------------------------------------
 Polarizable Continuum Model (PCM)
 =================================
 Model                : PCM.
 Atomic radii         : SMD-Coulomb.
 Polarization charges : Total charges.
 Charge compensation  : None.
 Solution method      : On-the-fly selection.
 Cavity type          : VdW (van der Waals Surface) (Alpha=1.000).
 Cavity algorithm     : GePol (No added spheres)
                        Default sphere list used, NSphG=   74.
                        Lebedev-Laikov grids with approx.  5.0 points / Ang**2.
                        Smoothing algorithm: York/Karplus (Gamma=1.0000).
                        Polarization charges: spherical gaussians, with
                                              point-specific exponents (IZeta= 3).
                        Self-potential: point-specific (ISelfS= 7).
                        Self-field    : sphere-specific E.n sum rule (ISelfD= 2).
 1st derivatives      : Analytical E(r).r(x)/FMM algorithm (CHGder, D1EAlg=3).
                        Cavity 1st derivative terms included.
 Solvent              : n,n-DiMethylFormamide, Eps=  37.219000 Eps(inf)=   2.046330
 ------------------------------------------------------------------------------
 GePol: Number of generator spheres                  =      74
 GePol: Total number of spheres                      =      74
 GePol: Number of exposed spheres                    =      73 ( 98.65%)
 GePol: Number of points                             =    5347
 GePol: Average weight of points                     =       0.11
 GePol: Minimum weight of points                     =   0.12D-09
 GePol: Maximum weight of points                     =    0.17992
 GePol: Number of points with low weight             =     378
 GePol: Fraction of low-weight points (<1% of avg)   =       7.07%
 GePol: Cavity surface area                          =    567.962 Ang**2
 GePol: Cavity volume                                =    594.831 Ang**3
 ------------------------------------------------------------------------------
 Atomic radii for non-electrostatic terms: SMD-CDS.
 ------------------------------------------------------------------------------
 PCM non-electrostatic energy =        -0.0098384945 Hartrees.
 Nuclear repulsion after PCM non-electrostatic terms =     6043.9065504437 Hartrees.
 Leave Link  301 at Mon Jan  8 11:01:28 2024, MaxMem=  2831155200 cpu:               0.1 elap:               0.1
 (Enter /opt/software/packages/g16/l302.exe)
 NPDir=0 NMtPBC=     1 NCelOv=     1 NCel=       1 NClECP=     1 NCelD=      1
         NCelK=      1 NCelE2=     1 NClLst=     1 CellRange=     0.0.
 One-electron integrals computed using PRISM.
   1 Symmetry operations used in ECPInt.
 ECPInt:  NShTT=   66795 NPrTT=  245334 LenC2=   56284 LenP2D=  131784.
 LDataN:  DoStor=T MaxTD1= 7 Len=  274
 NBasis=   801 RedAO= T EigKep=  1.47D-04  NBF=   801
 NBsUse=   801 1.00D-06 EigRej= -1.00D+00 NBFU=   801
 Precomputing XC quadrature grid using
 IXCGrd= 4 IRadAn=           5 IRanWt=          -1 IRanGd=           0 AccXCQ= 0.00D+00.
 Defaulting to unpruned grid for atomic number  44.
 Generated NRdTot=       0 NPtTot=           0 NUsed=           0 NTot=          32
 NSgBfM=   834   834   834   834   834 MxSgAt=    74 MxSgA2=    74.
 Leave Link  302 at Mon Jan  8 11:01:29 2024, MaxMem=  2831155200 cpu:              12.1 elap:               1.4
 (Enter /opt/software/packages/g16/l303.exe)
 DipDrv:  MaxL=1.
 Leave Link  303 at Mon Jan  8 11:01:29 2024, MaxMem=  2831155200 cpu:               0.3 elap:               0.1
 (Enter /opt/software/packages/g16/l401.exe)
 ExpMin= 3.92D-02 ExpMax= 1.71D+03 ExpMxC= 2.58D+02 IAcc=3 IRadAn=         5 AccDes= 0.00D+00
 Harris functional with IExCor=20419 and IRadAn=       5 diagonalized for initial guess.
 HarFok:  IExCor=20419 AccDes= 0.00D+00 IRadAn=         5 IDoV= 1 UseB2=F ITyADJ=14
 ICtDFT=  3500011 ScaDFX=  1.000000  1.000000  1.000000  1.000000
 Defaulting to unpruned grid for atomic number  44.
 FoFCou: FMM=F IPFlag=           0 FMFlag=      100000 FMFlg1=        2001
         NFxFlg=           0 DoJE=T BraDBF=F KetDBF=T FulRan=T
         wScrn=  0.000000 ICntrl=       500 IOpCl=  0 I1Cent=   200000004 NGrid=           0
         NMat0=    1 NMatS0=      1 NMatT0=    0 NMatD0=    1 NMtDS0=    0 NMtDT0=    0
 Symmetry not used in FoFCou.
 Harris En= -1849.01375660389    
 JPrj=0 DoOrth=F DoCkMO=F.
 Leave Link  401 at Mon Jan  8 11:01:35 2024, MaxMem=  2831155200 cpu:              82.7 elap:               5.8
 (Enter /opt/software/packages/g16/l502.exe)
 Two-electron integral symmetry not used.
 Closed shell SCF:
 Using DIIS extrapolation, IDIIS=  1040.
 NGot=  2831155200 LenX=  2829684469 LenY=  2828959417
 Requested convergence on RMS density matrix=1.00D-08 within 128 cycles.
 Requested convergence on MAX density matrix=1.00D-06.
 Requested convergence on             energy=1.00D-06.
 No special actions if energy rises.
 Fock matrices will be formed incrementally for  20 cycles.

 Cycle   1  Pass 1  IDiag  1:
 FoFJK:  IHMeth= 1 ICntrl=       0 DoSepK=T KAlg= 0 I1Cent=           0 FoldK=F
 IRaf=         1 NMat=       1 IRICut=       1 DoRegI=T DoRafI=F ISym2E= 0 IDoP0=0 IntGTp=1.
 FoFCou: FMM=T IPFlag=           0 FMFlag=      100000 FMFlg1=        2001
         NFxFlg=           0 DoJE=T BraDBF=F KetDBF=F FulRan=T
         wScrn=  0.000000 ICntrl=       500 IOpCl=  0 I1Cent=           0 NGrid=           0
         NMat0=    1 NMatS0=      1 NMatT0=    0 NMatD0=    1 NMtDS0=    0 NMtDT0=    0
 Symmetry not used in FoFCou.
 FMM levels:  10  Number of levels for PrismC:   9
 Defaulting to unpruned grid for atomic number  44.
 Defaulting to unpruned grid for atomic number  44.
 Defaulting to unpruned grid for atomic number  44.
 Defaulting to unpruned grid for atomic number  44.
 Defaulting to unpruned grid for atomic number  44.
 Defaulting to unpruned grid for atomic number  44.
 Defaulting to unpruned grid for atomic number  44.
 Defaulting to unpruned grid for atomic number  44.
 Defaulting to unpruned grid for atomic number  44.
 Defaulting to unpruned grid for atomic number  44.
 Defaulting to unpruned grid for atomic number  44.
 Defaulting to unpruned grid for atomic number  44.
 Defaulting to unpruned grid for atomic number  44.
 Defaulting to unpruned grid for atomic number  44.
 Defaulting to unpruned grid for atomic number  44.
 Defaulting to unpruned grid for atomic number  44.
 Inv3:  Mode=1 IEnd=    85771227.
 Iteration    1 A*A^-1 deviation from unit magnitude is 8.77D-15 for   5326.
 Iteration    1 A*A^-1 deviation from orthogonality  is 6.74D-15 for   5341   5130.
 Iteration    1 A^-1*A deviation from unit magnitude is 8.99D-15 for   5326.
 Iteration    1 A^-1*A deviation from orthogonality  is 6.40D-14 for   3660   3637.
 E= -1919.23811417980    
 DIIS: error= 6.52D-02 at cycle   1 NSaved=   1.
 NSaved= 1 IEnMin= 1 EnMin= -1919.23811417980     IErMin= 1 ErrMin= 6.52D-02
 ErrMax= 6.52D-02  0.00D+00 EMaxC= 1.00D-01 BMatC= 3.97D+00 BMatP= 3.97D+00
 IDIUse=3 WtCom= 3.48D-01 WtEn= 6.52D-01
 Coeff-Com:  0.100D+01
 Coeff-En:   0.100D+01
 Coeff:      0.100D+01
 Gap=     0.130 Goal=   None    Shift=    0.000
 GapD=    0.130 DampG=1.000 DampE=0.250 DampFc=0.2500 IDamp=-1.
 Damping current iteration by 2.50D-01
 RMSDP=2.57D-02 MaxDP=4.33D+00              OVMax= 9.38D-01

 Cycle   2  Pass 1  IDiag  1:
 RMSU=  6.42D-03    CP:  1.00D+00
 E= -1920.69249930809     Delta-E=       -1.454385128291 Rises=F Damp=T
 DIIS: error= 1.91D-02 at cycle   2 NSaved=   2.
 NSaved= 2 IEnMin= 2 EnMin= -1920.69249930809     IErMin= 2 ErrMin= 1.91D-02
 ErrMax= 1.91D-02  0.00D+00 EMaxC= 1.00D-01 BMatC= 5.50D-01 BMatP= 3.97D+00
 IDIUse=3 WtCom= 8.09D-01 WtEn= 1.91D-01
 Coeff-Com: -0.674D-01 0.107D+01
 Coeff-En:   0.276D+00 0.724D+00
 Coeff:     -0.164D-02 0.100D+01
 Gap=    -0.003 Goal=   None    Shift=    0.000
 RMSDP=6.73D-03 MaxDP=1.06D+00 DE=-1.45D+00 OVMax= 9.08D-01

 Cycle   3  Pass 1  IDiag  1:
 RMSU=  3.51D-03    CP:  9.23D-01  1.21D-01
 E= -1922.85524958746     Delta-E=       -2.162750279372 Rises=F Damp=F
 DIIS: error= 6.41D-02 at cycle   3 NSaved=   3.
 NSaved= 3 IEnMin= 3 EnMin= -1922.85524958746     IErMin= 2 ErrMin= 1.91D-02
 ErrMax= 6.41D-02  0.00D+00 EMaxC= 1.00D-01 BMatC= 1.50D+00 BMatP= 5.50D-01
 IDIUse=2 WtCom= 0.00D+00 WtEn= 1.00D+00
 Coeff-En:   0.253D+00 0.000D+00 0.747D+00
 Coeff:      0.253D+00 0.000D+00 0.747D+00
 Gap=     0.259 Goal=   None    Shift=    0.000
 RMSDP=2.41D-03 MaxDP=3.44D-01 DE=-2.16D+00 OVMax= 2.00D-01

 Cycle   4  Pass 1  IDiag  1:
 RMSU=  2.14D-03    CP:  9.18D-01  6.82D-02  7.00D-01
 E= -1923.33520971531     Delta-E=       -0.479960127848 Rises=F Damp=F
 DIIS: error= 2.32D-02 at cycle   4 NSaved=   4.
 NSaved= 4 IEnMin= 4 EnMin= -1923.33520971531     IErMin= 2 ErrMin= 1.91D-02
 ErrMax= 2.32D-02  0.00D+00 EMaxC= 1.00D-01 BMatC= 9.35D-01 BMatP= 5.50D-01
 IDIUse=2 WtCom= 0.00D+00 WtEn= 1.00D+00
 EnCoef did     5 forward-backward iterations
 Coeff-En:   0.553D-01 0.000D+00 0.403D+00 0.542D+00
 Coeff:      0.553D-01 0.000D+00 0.403D+00 0.542D+00
 Gap=     0.131 Goal=   None    Shift=    0.000
 RMSDP=1.68D-03 MaxDP=1.16D-01 DE=-4.80D-01 OVMax= 1.97D-01

 Cycle   5  Pass 1  IDiag  1:
 RMSU=  1.08D-03    CP:  9.23D-01  2.97D-02  7.03D-01  4.08D-01
 E= -1923.80946384086     Delta-E=       -0.474254125551 Rises=F Damp=F
 DIIS: error= 2.03D-02 at cycle   5 NSaved=   5.
 NSaved= 5 IEnMin= 5 EnMin= -1923.80946384086     IErMin= 2 ErrMin= 1.91D-02
 ErrMax= 2.03D-02  0.00D+00 EMaxC= 1.00D-01 BMatC= 3.66D-01 BMatP= 5.50D-01
 IDIUse=3 WtCom= 7.97D-01 WtEn= 2.03D-01
 EnCoef did     3 forward-backward iterations
 Coeff-Com: -0.427D-01 0.619D-01 0.227D+00 0.291D+00 0.462D+00
 Coeff-En:   0.000D+00 0.000D+00 0.160D+00 0.233D+00 0.607D+00
 Coeff:     -0.341D-01 0.494D-01 0.214D+00 0.280D+00 0.492D+00
 Gap=     0.232 Goal=   None    Shift=    0.000
 RMSDP=9.05D-04 MaxDP=1.22D-01 DE=-4.74D-01 OVMax= 2.07D-01

 Cycle   6  Pass 1  IDiag  1:
 RMSU=  2.85D-04    CP:  9.17D-01  6.39D-02  8.22D-01  5.42D-01  3.95D-01
 E= -1924.15024557539     Delta-E=       -0.340781734530 Rises=F Damp=F
 DIIS: error= 4.36D-03 at cycle   6 NSaved=   6.
 NSaved= 6 IEnMin= 6 EnMin= -1924.15024557539     IErMin= 6 ErrMin= 4.36D-03
 ErrMax= 4.36D-03  0.00D+00 EMaxC= 1.00D-01 BMatC= 1.02D-02 BMatP= 3.66D-01
 IDIUse=3 WtCom= 9.56D-01 WtEn= 4.36D-02
 Coeff-Com: -0.885D-02 0.184D-02-0.418D-01-0.187D-01 0.122D+00 0.946D+00
 Coeff-En:   0.000D+00 0.000D+00 0.000D+00 0.000D+00 0.000D+00 0.100D+01
 Coeff:     -0.846D-02 0.176D-02-0.400D-01-0.179D-01 0.117D+00 0.948D+00
 Gap=     0.220 Goal=   None    Shift=    0.000
 RMSDP=1.79D-04 MaxDP=1.83D-02 DE=-3.41D-01 OVMax= 1.85D-02

 Cycle   7  Pass 1  IDiag  1:
 RMSU=  1.19D-04    CP:  9.16D-01  5.72D-02  8.12D-01  5.47D-01  5.05D-01
                    CP:  1.08D+00
 E= -1924.16034547915     Delta-E=       -0.010099903758 Rises=F Damp=F
 DIIS: error= 4.58D-04 at cycle   7 NSaved=   7.
 NSaved= 7 IEnMin= 7 EnMin= -1924.16034547915     IErMin= 7 ErrMin= 4.58D-04
 ErrMax= 4.58D-04  0.00D+00 EMaxC= 1.00D-01 BMatC= 6.68D-04 BMatP= 1.02D-02
 IDIUse=3 WtCom= 9.95D-01 WtEn= 4.58D-03
 Coeff-Com:  0.214D-03-0.112D-02-0.347D-01-0.296D-01 0.985D-02 0.397D+00
 Coeff-Com:  0.659D+00
 Coeff-En:   0.000D+00 0.000D+00 0.000D+00 0.000D+00 0.000D+00 0.000D+00
 Coeff-En:   0.100D+01
 Coeff:      0.213D-03-0.111D-02-0.345D-01-0.294D-01 0.981D-02 0.395D+00
 Coeff:      0.660D+00
 Gap=     0.221 Goal=   None    Shift=    0.000
 RMSDP=5.54D-05 MaxDP=4.42D-03 DE=-1.01D-02 OVMax= 1.26D-02

 Cycle   8  Pass 1  IDiag  1:
 RMSU=  3.68D-05    CP:  9.16D-01  5.76D-02  8.16D-01  5.47D-01  4.95D-01
                    CP:  1.21D+00  9.72D-01
 E= -1924.16128266849     Delta-E=       -0.000937189337 Rises=F Damp=F
 DIIS: error= 6.26D-04 at cycle   8 NSaved=   8.
 NSaved= 8 IEnMin= 8 EnMin= -1924.16128266849     IErMin= 7 ErrMin= 4.58D-04
 ErrMax= 6.26D-04  0.00D+00 EMaxC= 1.00D-01 BMatC= 1.81D-04 BMatP= 6.68D-04
 IDIUse=3 WtCom= 9.95D-01 WtEn= 4.58D-03
 Coeff-Com:  0.326D-03-0.991D-04-0.468D-02-0.151D-02-0.534D-02-0.104D+00
 Coeff-Com:  0.823D-01 0.103D+01
 Coeff-En:   0.000D+00 0.000D+00 0.000D+00 0.000D+00 0.000D+00 0.000D+00
 Coeff-En:   0.000D+00 0.100D+01
 Coeff:      0.325D-03-0.987D-04-0.466D-02-0.150D-02-0.532D-02-0.104D+00
 Coeff:      0.819D-01 0.103D+01
 Gap=     0.220 Goal=   None    Shift=    0.000
 RMSDP=3.30D-05 MaxDP=2.25D-03 DE=-9.37D-04 OVMax= 6.82D-03

 Cycle   9  Pass 1  IDiag  1:
 RMSU=  1.29D-05    CP:  9.16D-01  5.69D-02  8.15D-01  5.50D-01  5.04D-01
                    CP:  1.26D+00  1.16D+00  1.24D+00
 E= -1924.16153526282     Delta-E=       -0.000252594329 Rises=F Damp=F
 DIIS: error= 1.26D-04 at cycle   9 NSaved=   9.
 NSaved= 9 IEnMin= 9 EnMin= -1924.16153526282     IErMin= 9 ErrMin= 1.26D-04
 ErrMax= 1.26D-04  0.00D+00 EMaxC= 1.00D-01 BMatC= 2.37D-05 BMatP= 1.81D-04
 IDIUse=3 WtCom= 9.99D-01 WtEn= 1.26D-03
 Coeff-Com:  0.524D-04 0.121D-03 0.153D-02 0.311D-02-0.369D-02-0.119D+00
 Coeff-Com: -0.445D-01 0.567D+00 0.596D+00
 Coeff-En:   0.000D+00 0.000D+00 0.000D+00 0.000D+00 0.000D+00 0.000D+00
 Coeff-En:   0.000D+00 0.000D+00 0.100D+01
 Coeff:      0.523D-04 0.120D-03 0.153D-02 0.311D-02-0.369D-02-0.119D+00
 Coeff:     -0.444D-01 0.566D+00 0.596D+00
 Gap=     0.219 Goal=   None    Shift=    0.000
 RMSDP=1.05D-05 MaxDP=5.85D-04 DE=-2.53D-04 OVMax= 2.00D-03

 Cycle  10  Pass 1  IDiag  1:
 RMSU=  5.11D-06    CP:  9.16D-01  5.67D-02  8.15D-01  5.50D-01  5.07D-01
                    CP:  1.27D+00  1.21D+00  1.36D+00  8.25D-01
 E= -1924.16156544740     Delta-E=       -0.000030184579 Rises=F Damp=F
 DIIS: error= 2.30D-05 at cycle  10 NSaved=  10.
[...]
      4   0.604968D-01 -0.181340D-02 -0.594489D-01  0.105817D+00 -0.198185D+00
      5  -0.115779D-01  0.133142D-02  0.957307D-02  0.277709D-02 -0.997573D-01
      6   0.738193D-02  0.358741D-03 -0.716629D-02  0.511133D-01 -0.160874D+00
      7  -0.751279D-02 -0.151484D-03  0.600353D-02 -0.121412D-01  0.265718D-01
      8   0.170731D+00 -0.217062D+00 -0.333833D+00  0.112313D+00  0.939591D-01
      9  -0.195701D+00 -0.289917D+00  0.594183D-01 -0.148670D+00 -0.187167D+00
     10  -0.378072D+00 -0.972369D-01 -0.906565D+00 -0.195452D+00 -0.196720D+00
     11   0.318412D-01  0.135398D-01  0.195564D+00 -0.281049D-01 -0.518723D-02
     12   0.394383D-01 -0.664204D-01 -0.101193D+00 -0.838717D-02  0.241484D+00
     13   0.642207D-01  0.687963D-01 -0.423935D-02  0.916406D-01 -0.204285D+00
     14  -0.490354D-01 -0.689174D-01  0.664917D-01 -0.139599D+00  0.409100D+00
     15   0.858041D-01 -0.662544D-01  0.825448D-01 -0.436231D-01  0.355821D+00
     16  -0.216436D-01  0.107398D+00  0.403498D-01  0.957695D-01 -0.467451D+00
                 6             7             8             9            10 
      1  -0.192403D+04 -0.192403D+04 -0.192403D+04 -0.192403D+04 -0.192402D+04
      2   0.301456D-01  0.129804D+01 -0.156148D-01  0.183974D+00 -0.787092D+00
      3  -0.853245D-01 -0.755511D+00 -0.212889D+00  0.118895D+00 -0.774783D-02
      4   0.363682D-01 -0.473745D+00 -0.128057D-01 -0.222287D-01  0.351995D+00
      5  -0.547343D-02 -0.171653D+00  0.162101D-02 -0.247607D-01  0.109585D+00
      6   0.119131D-01  0.100080D+00  0.267792D-01 -0.164557D-01  0.131254D-02
      7  -0.478999D-02  0.625271D-01  0.197371D-02  0.340872D-02 -0.495194D-01
      8   0.556328D+00 -0.246206D+00  0.189499D+00 -0.819789D-03 -0.142953D+00
      9  -0.166187D+00 -0.427190D-01  0.641750D+00 -0.848378D-01  0.154563D+00
     10  -0.148896D+00  0.105575D+00 -0.751860D-01 -0.270238D-01  0.938849D-01
     11  -0.675730D-01 -0.973448D+00 -0.258809D-01 -0.140395D+00 -0.494270D-01
     12   0.794151D-01  0.696581D+00  0.359491D-01 -0.102719D+00  0.118070D+00
     13   0.411249D-01  0.954905D-01 -0.486001D-01 -0.203388D-01  0.619042D-01
     14  -0.683641D-01 -0.246051D+00  0.447832D-02  0.776389D-01 -0.204215D+00
     15   0.357041D-01  0.204582D-01  0.448310D-01  0.161763D+00 -0.143963D-01
     16  -0.708397D-01 -0.245002D+00 -0.394345D-01 -0.888530D-01 -0.205550D+00
                11            12            13            14            15 
      1  -0.192402D+04 -0.192402D+04 -0.192402D+04 -0.192402D+04 -0.192402D+04
      2   0.245941D+00  0.251911D+00  0.684148D+00  0.573342D-01 -0.237312D+00
      3   0.105333D+01 -0.439945D+00 -0.498912D-01  0.802667D-01  0.590376D-01
      4  -0.176532D-02 -0.103468D+00 -0.111656D+00  0.151167D+00 -0.230610D+00
      5  -0.341194D-01 -0.356199D-01 -0.964574D-01 -0.808105D-02  0.339520D-01
      6  -0.147637D+00  0.622978D-01  0.712318D-02 -0.119335D-01 -0.822978D-02
      7   0.568693D-03  0.139756D-01  0.163321D-01 -0.204509D-01  0.316224D-01
      8   0.129659D+00  0.116694D+00 -0.234014D+00  0.714909D+00 -0.998234D+00
      9   0.126466D+00  0.382958D+00 -0.109279D+00 -0.118004D-01  0.594312D+00
     10  -0.154753D+00  0.136890D-01  0.319876D-01 -0.255382D+00  0.382754D+00
     11  -0.798996D-01 -0.430581D+00 -0.521407D+00  0.201427D+00  0.247670D+00
     12  -0.430095D-01  0.725608D-01  0.524157D+00  0.279926D+00  0.111087D+00
     13   0.130667D+00  0.343181D+00 -0.354301D-01 -0.886862D-02  0.119601D+00
     14  -0.821091D-01 -0.407200D+00 -0.469194D-01  0.121681D+00 -0.510938D-04
     15  -0.113120D+00 -0.367384D+00  0.166360D+00 -0.452433D-01  0.536287D-01
     16   0.273898D-01  0.276954D+00 -0.484053D+00 -0.851585D-01 -0.259481D-01
                16            17            18            19            20 
      1  -0.192402D+04 -0.192402D+04 -0.192401D+04 -0.192401D+04 -0.192401D+04
      2   0.815375D-01  0.567256D-01 -0.612276D-01 -0.182609D+00 -0.137660D+00
      3   0.356438D-01  0.252645D+00  0.467144D-02 -0.924324D-01  0.654072D-01
      4  -0.644445D+00  0.249896D+00 -0.288229D+00 -0.223145D+00 -0.734979D-01
      5  -0.130566D-01 -0.748528D-02  0.857475D-02  0.274257D-01  0.203894D-01
      6  -0.483313D-02 -0.373698D-01 -0.225100D-02  0.137514D-01 -0.957654D-02
      7   0.898485D-01 -0.345328D-01  0.407652D-01  0.309379D-01  0.107705D-01
      8   0.889754D+00  0.234607D+00 -0.305497D-01  0.350127D+00 -0.170801D+00
      9   0.363944D+00  0.138281D+01 -0.576942D+00 -0.154174D+00  0.909321D-01
     10  -0.268409D+00 -0.275239D-01  0.991215D-01 -0.576996D-01 -0.300195D+00
     11   0.226833D-01  0.658869D-02  0.435572D+00  0.367311D+00  0.212884D+00
     12  -0.103370D-01 -0.134239D+00 -0.127708D+00 -0.377655D+00  0.456055D+00
     13   0.115094D+00 -0.142193D+00 -0.350073D+00  0.121063D+00  0.162506D+00
     14  -0.191183D-01  0.112467D+00  0.439581D+00  0.340369D-01 -0.220139D-01
     15   0.190559D+00 -0.279623D-01  0.476053D+00 -0.204894D+00 -0.155657D+00
     16  -0.118221D-01  0.133118D-01 -0.186401D+00  0.549627D+00 -0.682696D-01
                21            22            23            24            25 
      1  -0.192401D+04 -0.192400D+04 -0.192400D+04 -0.192400D+04 -0.192400D+04
      2   0.251234D-01  0.114804D+01  0.974438D+00  0.431118D-01 -0.548682D-01
      3  -0.669919D-01 -0.600155D+00 -0.356472D+00 -0.283759D-02  0.198098D-01
      4  -0.982407D-01  0.964126D+00  0.760030D+00  0.346795D-01 -0.395266D-01
      5  -0.354496D-02 -0.179040D+00 -0.146394D+00 -0.220089D-02 -0.201050D-02
      6   0.104789D-01  0.914580D-01  0.627237D-01 -0.993658D-02 -0.241322D-02
      7   0.150505D-01 -0.149294D+00 -0.120042D+00 -0.696940D-02  0.101303D-01
      8   0.527614D+00  0.647715D+00  0.449031D+00  0.271085D-01  0.324821D-01
      9  -0.102350D+00 -0.651151D+00 -0.558785D+00  0.501540D-01  0.251637D-01
     10   0.145889D+01 -0.836360D+00 -0.647542D+00 -0.179782D-01  0.114959D-01
     11   0.134157D+00  0.163851D+01  0.127518D+01 -0.317402D-01 -0.359410D+00
     12   0.802256D-01 -0.799247D+00 -0.800614D+00 -0.283528D+00 -0.287039D-01
     13   0.915918D-01  0.268381D+00  0.133952D+00 -0.120476D+00 -0.152082D+00
     14  -0.192490D-01  0.231567D+00  0.180066D+00  0.111458D+00  0.204062D-02
     15   0.354024D-01  0.923018D+00  0.778165D+00  0.509637D-01  0.561078D-02
     16   0.238076D-01  0.588268D+00  0.516135D+00  0.744315D-02 -0.555132D-01
                26            27            28            29            30 
      1  -0.192399D+04 -0.192399D+04 -0.192399D+04 -0.192399D+04 -0.192399D+04
      2  -0.165120D-01 -0.788438D-02 -0.716562D-01  0.173595D-01  0.312509D-01
      3  -0.282126D-02  0.557982D-02 -0.674398D-01  0.102529D+00  0.178400D-01
      4   0.930870D-02 -0.205865D-01  0.960906D-01  0.133819D+00 -0.139922D-01
      5   0.000000D+00 -0.151677D-02  0.137347D-01 -0.523895D-02 -0.518488D-02
      6  -0.171293D-02  0.235224D-02  0.147364D-01 -0.204583D-01 -0.213949D-02
      7  -0.780415D-03  0.730156D-02 -0.213324D-01 -0.302237D-01  0.160184D-02
      8   0.136088D+00  0.243832D+00 -0.582620D+00 -0.269155D+00  0.547539D-01
      9   0.116636D+00 -0.131049D+00 -0.428990D+00  0.521534D+00 -0.217031D-01
     10  -0.946254D-01 -0.596875D-01 -0.106368D+00 -0.510549D+00 -0.673729D-02
     11   0.134229D-01 -0.343568D-01 -0.110251D-02 -0.344078D+00  0.804806D-01
     12  -0.151753D-01 -0.289048D-01  0.227795D+00  0.125126D+00  0.211499D-01
     13  -0.430068D-01  0.219144D-01 -0.227466D+00  0.209692D+00  0.117894D+00
     14  -0.742095D-02 -0.185330D-01  0.129650D+00 -0.269018D+00 -0.209705D-01
     15   0.377569D-01 -0.684243D-01  0.304765D+00 -0.280851D+00  0.575470D-01
     16  -0.438371D-01  0.231024D-01 -0.456999D+00  0.511727D-02 -0.502605D-02
                31            32            33            34            35 
      1  -0.192399D+04 -0.192398D+04 -0.192398D+04 -0.192398D+04 -0.192398D+04
      2  -0.929047D+00  0.107294D+01 -0.743339D+00  0.140584D+00 -0.717796D+00
      3   0.521795D+00 -0.595241D+00 -0.106967D+01 -0.317226D+00 -0.674389D-01
      4  -0.699295D+00  0.167120D+00  0.670218D-01  0.945596D+00 -0.157448D+00
      5   0.155849D+00 -0.190412D+00  0.126639D+00 -0.354260D-01  0.128885D+00
      6  -0.911773D-01  0.103907D+00  0.179212D+00  0.642111D-01  0.169092D-01
      7   0.112894D+00 -0.459283D-01 -0.117037D-01 -0.166300D+00  0.242909D-01
      8  -0.995733D+00  0.178433D+01 -0.140606D+01 -0.388501D+00  0.316114D+00
      9   0.106538D+01 -0.127634D+01 -0.215036D+01 -0.520702D+00  0.229805D+01
     10   0.179545D+01 -0.878065D+00  0.800760D+00 -0.755983D+00  0.323739D+00
     11  -0.118092D+01  0.175662D+01  0.262272D+00  0.102275D+01 -0.155208D+01
     12   0.974533D+00 -0.128904D+01  0.353280D+00 -0.579800D+00 -0.700844D+00
     13   0.188964D+00 -0.280152D-01 -0.678449D+00 -0.188204D+00  0.822646D+00
     14  -0.496520D+00  0.629513D+00  0.768850D+00  0.231245D+00 -0.170506D+01
     15  -0.357048D+00  0.681268D+00  0.709707D+00  0.756982D+00 -0.127434D+01
     16  -0.803963D+00  0.105375D+01 -0.836303D+00  0.411101D+00  0.863013D+00
                36            37            38            39            40 
      1  -0.192398D+04 -0.192398D+04 -0.192397D+04 -0.192397D+04 -0.192397D+04
      2   0.124377D+01  0.117559D+01  0.290250D+00  0.146642D+01 -0.332542D+00
      3   0.106973D+01  0.181433D+00 -0.588576D+00 -0.618851D+00 -0.115520D+01
      4  -0.158274D+00  0.234140D+01 -0.196789D+01 -0.538950D-02  0.444818D-01
      5  -0.230992D+00 -0.213234D+00 -0.529891D-01 -0.285439D+00  0.598053D-01
      6  -0.205608D+00 -0.365423D-01  0.108056D+00  0.122984D+00  0.217098D+00
      7   0.346445D-01 -0.423398D+00  0.367493D+00  0.463696D-02 -0.685675D-02
      8   0.179915D+01 -0.150539D+01  0.206957D+01 -0.224188D+00 -0.116643D+01
      9   0.923686D+00  0.675867D+00 -0.113530D+01  0.293182D+00 -0.213251D+01
     10  -0.104955D+01 -0.237559D+01  0.169461D+01 -0.387477D+00  0.621627D+00
     11   0.545660D+00  0.101632D+00  0.106589D+01 -0.154977D+01  0.566938D+00
     12   0.257688D+00  0.316899D+00 -0.736182D+00  0.131508D+01  0.736638D+00
     13   0.592296D+00  0.161855D+00  0.257075D+00  0.161197D+00 -0.799414D+00
     14   0.746091D+00 -0.933811D-01  0.397344D+00 -0.580887D+00  0.752477D+00
     15  -0.738529D+00  0.134957D+00  0.793792D+00  0.267090D+00  0.103273D+01
     16   0.955536D+00 -0.297576D+00  0.814717D+00  0.957307D-01 -0.829998D+00
                41            42            43            44            45 
      1  -0.192397D+04 -0.192397D+04 -0.192397D+04 -0.192397D+04 -0.192396D+04
      2  -0.255972D+00 -0.580120D+00 -0.932914D-01 -0.176971D+00 -0.333507D+00
      3   0.102260D+01 -0.190775D+00 -0.162996D+00 -0.222039D+00  0.968782D-01
      4   0.628108D+00  0.108884D+01  0.105908D+00 -0.184061D+00 -0.756979D+00
      5   0.505401D-01  0.119683D+00  0.188506D-01  0.334208D-01  0.673075D-01
      6  -0.202516D+00  0.366907D-01  0.316400D-01  0.452060D-01 -0.216485D-01
      7  -0.119127D+00 -0.208021D+00 -0.201371D-01  0.343201D-01  0.142445D+00
      8  -0.730667D+00 -0.564452D+00 -0.472995D+00  0.950522D-01  0.945938D+00
      9   0.508711D+00  0.146412D+00 -0.515298D+00 -0.408404D-01 -0.464505D+00
     10  -0.364189D+00 -0.788649D+00  0.179574D+00  0.433294D+00  0.706673D+00
     11  -0.347353D+00  0.263029D+01 -0.314402D+00  0.400038D+00  0.940432D+00
     12  -0.160137D+01  0.315188D+00 -0.203952D+00  0.307422D+00 -0.127926D+01
     13   0.131700D+00  0.312168D+00 -0.425754D+00  0.715941D-01  0.123428D+00
     14   0.413666D+00 -0.258267D+00  0.801488D+00 -0.240243D+00  0.529912D+00
     15   0.469395D+00 -0.675499D+00  0.314565D+00 -0.131209D+00 -0.119432D+00
     16  -0.709029D+00  0.340260D-01 -0.361272D+00 -0.103839D-01  0.464608D-01
                46            47            48            49            50 
      1  -0.192396D+04 -0.192396D+04 -0.192396D+04 -0.192396D+04 -0.192396D+04
      2  -0.513438D-01 -0.284778D+00  0.209036D-01 -0.301486D-01  0.225290D+00
      3  -0.825171D-01  0.175196D+00 -0.112151D+00 -0.237987D-01  0.109304D+00
      4   0.362710D-01 -0.370134D+00  0.757266D-01 -0.111055D+00  0.106754D+00
      5   0.116360D-01  0.531072D-01 -0.130468D-02  0.566266D-02 -0.462906D-01
      6   0.169115D-01 -0.317485D-01  0.210265D-01  0.626954D-02 -0.242229D-01
      7  -0.777656D-02  0.696488D-01 -0.152103D-01  0.217458D-01 -0.213490D-01
      8   0.761727D-01 -0.392722D+00  0.235577D+00  0.924644D-01  0.142023D-01
      9   0.925004D-01  0.180605D+00 -0.107332D+00  0.197951D+00 -0.158418D+00
     10  -0.124585D-01  0.133998D+01 -0.430990D+00  0.204907D+00 -0.659688D-01
     11   0.831181D+00  0.146403D+01 -0.267536D+00  0.198701D+00  0.420751D+00
     12   0.441048D+00  0.264519D+00 -0.303996D+00  0.319379D+00 -0.287426D+00
     13  -0.572112D+00  0.622603D+00 -0.219369D+00 -0.566044D-01  0.115624D+00
     14  -0.302424D+00 -0.190936D+00  0.118176D+00 -0.217365D+00  0.285415D+00
     15  -0.574487D+00  0.105701D+01 -0.356368D+00 -0.306925D-01  0.511682D+00
     16   0.164843D+00 -0.124823D+00  0.542630D-01  0.504874D-01  0.558915D-01
                51            52            53            54            55 
      1  -0.192396D+04 -0.192395D+04 -0.192395D+04 -0.192395D+04 -0.192395D+04
      2   0.131430D+00  0.486524D-01 -0.114442D+00 -0.411521D+00 -0.248346D+00
      3  -0.210108D+00 -0.103635D+00  0.228795D+00  0.561396D+00  0.173566D+00
      4   0.162190D+00  0.200156D+00 -0.352677D+00 -0.602222D+00 -0.362248D-01
      5  -0.279495D-01 -0.928234D-02  0.194904D-01  0.808486D-01  0.495083D-01
      6   0.437711D-01  0.185818D-01 -0.475415D-01 -0.115102D+00 -0.356639D-01
      7  -0.299590D-01 -0.390151D-01  0.706810D-01  0.120479D+00  0.704877D-02
      8   0.279790D+00  0.246499D+00 -0.296767D+00 -0.566479D+00  0.111614D+00
      9  -0.229192D+00 -0.758255D-01  0.580728D+00  0.446755D+00  0.734721D-01
     10  -0.531675D+00 -0.402881D+00  0.763009D+00  0.124938D+01  0.173557D+00
     11  -0.495552D+00  0.230648D+00 -0.443407D+00 -0.348205D+00 -0.251914D+00
     12  -0.537986D-02 -0.222102D+00  0.733615D+00  0.898679D+00  0.787142D-01
     13  -0.197879D+00 -0.228602D+00  0.161693D+00  0.366823D+00  0.100814D+00
     14  -0.921182D-01  0.240269D+00 -0.657591D-02 -0.106661D+00 -0.496990D-01
     15  -0.183926D+00  0.859424D-02  0.255575D+00 -0.975526D-02 -0.331997D-01
     16   0.521186D-01  0.886667D-02 -0.516092D+00 -0.622925D+00 -0.225883D+00
                56            57            58            59            60 
      1  -0.192395D+04 -0.192395D+04 -0.192395D+04 -0.192395D+04 -0.192395D+04
      2  -0.311383D-01  0.102689D+00 -0.236998D+00  0.427764D+00 -0.254346D+00
      3   0.164051D+00 -0.408418D-01  0.122108D+00 -0.203876D+00 -0.222007D+00
      4  -0.684738D-01 -0.916018D-01 -0.188613D+00  0.577118D+00  0.765616D-01
      5   0.508286D-02 -0.222300D-01  0.470661D-01 -0.864543D-01  0.504018D-01
      6  -0.325154D-01  0.908342D-02 -0.265562D-01  0.437094D-01  0.425849D-01
      7   0.134848D-01  0.185591D-01  0.385900D-01 -0.118502D+00 -0.138107D-01
      8  -0.242271D+00  0.728406D-01 -0.123916D+00 -0.108824D+01 -0.114713D+00
      9   0.414293D-01 -0.373105D+00 -0.859866D-02 -0.161807D+00  0.100522D+00
     10   0.391084D+00 -0.675208D-01  0.259380D+00 -0.216815D+00 -0.370821D-01
     11  -0.364832D+00  0.233275D-01 -0.248259D+00  0.908921D+00 -0.175683D-01
     12   0.538833D+00  0.130893D+00  0.397801D+00 -0.720064D+00  0.173357D+00
     13   0.118299D+00 -0.402628D-03  0.150108D+00 -0.227358D-01 -0.735967D-02
     14  -0.212541D+00  0.879359D-01 -0.227412D+00  0.229361D+00 -0.743226D-01
     15  -0.130089D+00  0.685307D-01 -0.143424D+00  0.554108D+00 -0.183651D+00
     16  -0.227002D+00  0.552111D-01 -0.174659D+00  0.391193D+00  0.263923D-02
 Unable to Open any file for archive entry.
 1\1\GINC-X1000C5S4B0N0\SP\RCAM-B3LYP TD-FC\Gen\C39H28N6Ru1(2+)\PNG4RJV
 \08-Jan-2024\0\\#p cam-b3lyp chkbasis geom=allcheck Guess=Read int=ult
 rafine scrf=(SMD,solvent=n,n-DiMethylFormamide) td=(NStates=60) Empiri
 calDispersion=GD3BJ\\Title\\2,1\C,0,-1.6774057027,-2.042177936,0.27182
 22508\C,0,-2.4219818283,-0.3211945959,-1.0755066558\C,0,-3.6446765146,
 -0.9764516488,-1.3393735847\C,0,-3.8500520581,-2.2105374242,-0.7391975
 669\C,0,-2.8584627782,-2.7761887735,0.0805769051\C,0,-0.6306021812,-2.
 5542595789,1.1029169033\C,0,1.4650369112,-2.2219397915,2.0136754849\C,
 0,1.4072047917,-3.4616563757,2.6681102713\C,0,0.2892152441,-4.25507505
 31,2.5290027506\C,0,-0.7775553791,-3.8048689715,1.7253374334\H,0,-2.20
 83997391,0.6516597216,-1.5152930215\H,0,-4.7860355942,-2.752690864,-0.
 8814421826\H,0,2.3383357161,-1.5755944675,2.1154728646\H,0,2.252285689
 5,-3.7764788391,3.2811006483\H,0,0.217777129,-5.222189253,3.0307648086
 \C,0,-0.6655382867,2.7034670664,-0.0750301255\C,0,0.3234254588,2.09928
 14517,-2.0734626028\C,0,-0.014669914,3.3343217111,-2.647090097\C,0,-0.
 700251088,4.2671655791,-1.900643596\C,0,-1.0454512207,3.9629216895,-0.
 56786994\C,0,-0.9925826269,2.3287474898,1.2687742115\C,0,-0.8818257364
 ,0.7144735834,2.916828541\C,0,-1.5666389806,1.5451234474,3.8168396861\
 C,0,-1.9709233398,2.7985285537,3.4139249284\C,0,-1.6854664897,3.224211
 497,2.1004001038\H,0,0.859956736,1.3434561523,-2.6492380859\H,0,0.2708
 150574,3.5339991233,-3.6802986599\H,0,-0.9782360612,5.2346479111,-2.32
 36451439\H,0,-0.552411862,-0.2817737092,3.2161016211\H,0,-1.7686024085
 ,1.1810818871,4.8246352404\H,0,-2.5063083484,3.4643703435,4.0937946654
 \C,0,3.2226491054,0.1967537283,-0.2216052151\C,0,2.6688902486,1.425694
 8889,1.6536192305\C,0,4.010531199,1.7868858586,1.8487389192\C,0,4.9726
 251259,1.3296496021,0.9757836775\C,0,4.5877058939,0.5060424956,-0.1017
 464325\C,0,2.7662164398,-0.6369802016,-1.2935600059\C,0,0.9732371856,-
 1.6584955728,-2.3314725853\C,0,1.816493605,-2.2127445685,-3.3063692877
 \C,0,3.1696027005,-1.9603391019,-3.2595293689\C,0,3.682487871,-1.14778
 258,-2.2277743765\H,0,1.8921449822,1.7737137059,2.3361875602\H,0,6.024
 1698307,1.5938465823,1.1050149987\H,0,-0.1020088845,-1.8434787548,-2.3
 529165231\H,0,3.8481595725,-2.3779359284,-4.0061424939\N,0,2.283076492
 5,0.6516691278,0.6496335756\N,0,0.4747225917,-1.7767430982,1.253577321
 6\N,0,-0.6005305225,1.0928496075,1.6784992029\N,0,-1.4735397548,-0.833
 2493095,-0.3079498215\N,0,0.0049915689,1.7886618496,-0.8250404656\N,0,
 1.4315477166,-0.8906748644,-1.3534416816\Ru,0,0.3607123864,0.007991096
 5,0.1855925039\C,0,5.5070338907,-0.0276351066,-1.0692428666\C,0,5.0744
 759243,-0.818625705,-2.0850571954\C,0,-1.9936306674,-4.5442651622,1.51
 42469113\C,0,-2.9893086344,-4.0522893774,0.7325130672\C,0,-2.062043860
 2,4.5084042287,1.5755593611\C,0,-1.7574956487,4.8610173014,0.299735329
 5\H,0,5.777206047,-1.2217441745,-2.816710477\H,0,6.5652799128,0.219552
 3015,-0.9655784546\H,0,-3.9103204779,-4.617976826,0.5796482365\H,0,-2.
 0971778297,-5.5145580974,2.0036367449\H,0,-2.0472090411,5.8369117425,-
 0.0943793777\H,0,-2.6014022629,5.1949691467,2.2308577321\H,0,4.2692946
 999,2.4255767393,2.6937862285\H,0,1.3828863272,-2.8363511547,-4.088724
 4771\C,0,-4.6504239366,-0.3266806381,-2.222480357\C,0,-5.6207405515,-1
 .035297443,-2.8114297918\H,0,-5.7099542112,-2.1181383821,-2.6997761368
 \H,0,-6.3606874353,-0.5421678168,-3.4468104249\C,0,-4.5219065306,1.156
 3648395,-2.442181365\H,0,-4.457321228,1.7021216829,-1.487591561\H,0,-3
 .6117577843,1.4014303804,-3.0128461898\H,0,-5.3822126522,1.5399070313,
 -3.006071725\\Version=AS64L-G16RevC.02\State=1-A\HF=-1924.1627942\RMSD
 =5.803e-09\PG=C01 [X(C39H28N6Ru1)]\\@
 The archive entry for this job was punched.


 THE ONLY DIFFERENCE BETWEEN ECCENTRICS AND JOGGERS
 IS THAT JOGGERS WEAR SWEATBANDS WHEN THEY RUN IN THE RAIN.
 Job cpu time:       0 days 19 hours 15 minutes  0.8 seconds.
 Elapsed time:       0 days  1 hours 38 minutes 52.9 seconds.
 File lengths (MBytes):  RWF=  17976 Int=      0 D2E=      0 Chk=   1329 Scr=      1
 Normal termination of Gaussian 16 at Mon Jan  8 18:14:57 2024.
