
                                 *****************
                                 * O   R   C   A *
                                 *****************

                                            #,                                       
                                            ###                                      
                                            ####                                     
                                            #####                                    
                                            ######                                   
                                           ########,                                 
                                     ,,################,,,,,                         
                               ,,#################################,,                 
                          ,,##########################################,,             
                       ,#########################################, ''#####,          
                    ,#############################################,,   '####,        
                  ,##################################################,,,,####,       
                ,###########''''           ''''###############################       
              ,#####''   ,,,,##########,,,,          '''####'''          '####       
            ,##' ,,,,###########################,,,                        '##       
           ' ,,###''''                  '''############,,,                           
         ,,##''                                '''############,,,,        ,,,,,,###''
      ,#''                                            '''#######################'''  
     '                                                          ''''####''''         
             ,#######,   #######,   ,#######,      ##                                
            ,#'     '#,  ##    ##  ,#'     '#,    #''#        ######   ,####,        
            ##       ##  ##   ,#'  ##            #'  '#       #        #'  '#        
            ##       ##  #######   ##           ,######,      #####,   #    #        
            '#,     ,#'  ##    ##  '#,     ,#' ,#      #,         ##   #,  ,#        
             '#######'   ##     ##  '#######'  #'      '#     #####' # '####'        



                  #######################################################
                  #                        -***-                        #
                  #          Department of theory and spectroscopy      #
                  #    Directorship and core code : Frank Neese         #
                  #        Max Planck Institute fuer Kohlenforschung    #
                  #                Kaiser Wilhelm Platz 1               #
                  #                 D-45470 Muelheim/Ruhr               #
                  #                      Germany                        #
                  #                                                     #
                  #                  All rights reserved                #
                  #                        -***-                        #
                  #######################################################


                         Program Version 5.0.4 -  RELEASE  -


 With contributions from (in alphabetic order):
   Daniel Aravena         : Magnetic Suceptibility
   Michael Atanasov       : Ab Initio Ligand Field Theory (pilot matlab implementation)
   Alexander A. Auer      : GIAO ZORA, VPT2 properties, NMR spectrum
   Ute Becker             : Parallelization
   Giovanni Bistoni       : ED, misc. LED, open-shell LED, HFLD
   Martin Brehm           : Molecular dynamics
   Dmytro Bykov           : SCF Hessian
   Vijay G. Chilkuri      : MRCI spin determinant printing, contributions to CSF-ICE
   Dipayan Datta          : RHF DLPNO-CCSD density
   Achintya Kumar Dutta   : EOM-CC, STEOM-CC
   Dmitry Ganyushin       : Spin-Orbit,Spin-Spin,Magnetic field MRCI
   Miquel Garcia          : C-PCM and meta-GGA Hessian, CC/C-PCM, Gaussian charge scheme
   Yang Guo               : DLPNO-NEVPT2, F12-NEVPT2, CIM, IAO-localization
   Andreas Hansen         : Spin unrestricted coupled pair/coupled cluster methods
   Benjamin Helmich-Paris : MC-RPA, TRAH-SCF, COSX integrals
   Lee Huntington         : MR-EOM, pCC
   Robert Izsak           : Overlap fitted RIJCOSX, COSX-SCS-MP3, EOM
   Marcus Kettner         : VPT2
   Christian Kollmar      : KDIIS, OOCD, Brueckner-CCSD(T), CCSD density, CASPT2, CASPT2-K
   Simone Kossmann        : Meta GGA functionals, TD-DFT gradient, OOMP2, MP2 Hessian
   Martin Krupicka        : Initial AUTO-CI
   Lucas Lang             : DCDCAS
   Marvin Lechner         : AUTO-CI (C++ implementation), FIC-MRCC
   Dagmar Lenk            : GEPOL surface, SMD
   Dimitrios Liakos       : Extrapolation schemes; Compound Job, initial MDCI parallelization
   Dimitrios Manganas     : Further ROCIS development; embedding schemes
   Dimitrios Pantazis     : SARC Basis sets
   Anastasios Papadopoulos: AUTO-CI, single reference methods and gradients
   Taras Petrenko         : DFT Hessian,TD-DFT gradient, ASA, ECA, R-Raman, ABS, FL, XAS/XES, NRVS
   Peter Pinski           : DLPNO-MP2, DLPNO-MP2 Gradient
   Christoph Reimann      : Effective Core Potentials
   Marius Retegan         : Local ZFS, SOC
   Christoph Riplinger    : Optimizer, TS searches, QM/MM, DLPNO-CCSD(T), (RO)-DLPNO pert. Triples
   Tobias Risthaus        : Range-separated hybrids, TD-DFT gradient, RPA, STAB
   Michael Roemelt        : Original ROCIS implementation
   Masaaki Saitow         : Open-shell DLPNO-CCSD energy and density
   Barbara Sandhoefer     : DKH picture change effects
   Avijit Sen             : IP-ROCIS
   Kantharuban Sivalingam : CASSCF convergence, NEVPT2, FIC-MRCI
   Bernardo de Souza      : ESD, SOC TD-DFT
   Georgi Stoychev        : AutoAux, RI-MP2 NMR, DLPNO-MP2 response
   Willem Van den Heuvel  : Paramagnetic NMR
   Boris Wezisla          : Elementary symmetry handling
   Frank Wennmohs         : Technical directorship


 We gratefully acknowledge several colleagues who have allowed us to
 interface, adapt or use parts of their codes:
   Stefan Grimme, W. Hujo, H. Kruse, P. Pracht,  : VdW corrections, initial TS optimization,
                  C. Bannwarth, S. Ehlert          DFT functionals, gCP, sTDA/sTD-DF
   Ed Valeev, F. Pavosevic, A. Kumar             : LibInt (2-el integral package), F12 methods
   Garnet Chan, S. Sharma, J. Yang, R. Olivares  : DMRG
   Ulf Ekstrom                                   : XCFun DFT Library
   Mihaly Kallay                                 : mrcc  (arbitrary order and MRCC methods)
   Jiri Pittner, Ondrej Demel                    : Mk-CCSD
   Frank Weinhold                                : gennbo (NPA and NBO analysis)
   Christopher J. Cramer and Donald G. Truhlar   : smd solvation model
   Lars Goerigk                                  : TD-DFT with DH, B97 family of functionals
   V. Asgeirsson, H. Jonsson                     : NEB implementation
   FAccTs GmbH                                   : IRC, NEB, NEB-TS, DLPNO-Multilevel, CI-OPT
                                                   MM, QMMM, 2- and 3-layer-ONIOM, Crystal-QMMM,
                                                   LR-CPCM, SF, NACMEs, symmetry and pop. for TD-DFT,
                                                   nearIR, NL-DFT gradient (VV10), updates on ESD,
                                                   ML-optimized integration grids
   S Lehtola, MJT Oliveira, MAL Marques          : LibXC Library
   Liviu Ungur et al                             : ANISO software


 Your calculation uses the libint2 library for the computation of 2-el integrals
 For citations please refer to: http://libint.valeyev.net

 Your ORCA version has been built with support for libXC version: 5.1.0
 For citations please refer to: https://tddft.org/programs/libxc/

 This ORCA versions uses:
   CBLAS   interface :  Fast vector & matrix operations
   LAPACKE interface :  Fast linear algebra routines
   SCALAPACK package :  Parallel linear algebra routines
   Shared memory     :  Shared parallel matrices
   BLAS/LAPACK       :  OpenBLAS 0.3.15  USE64BITINT DYNAMIC_ARCH NO_AFFINITY Zen SINGLE_THREADED
        Core in use  :  Zen
   Copyright (c) 2011-2014, The OpenBLAS Project


Your calculation utilizes the atom-pairwise dispersion correction
with the zero-damping scheme (D30)
Cite in your paper:
S.Grimme, J.Antony, S.Ehrlich and H.Krieg, J.Chem.Phys., 132, (2010), 154104 
   

Your calculation utilizes the SMD solvation module
Please cite in your paper:
A.V. Marenich, C.J. Cramer, D.G. Truhlar J. Phys. Chem. B, 113, (2009), 6378 

XCFun DFT library Copyright 2009-2010 Ulf Ekstrom and contributors.
See http://admol.org/xcfun for more information.
This is free software; see the source code for copying conditions.
There is ABSOLUTELY NO WARRANTY; not even for MERCHANTABILITY or FITNESS FOR A PARTICULAR PURPOSE.
For details see the documentation.
Scientific users of this library should cite U. Ekstrom, L. Visscher, R. Bast, A. J. Thorvaldsen and K. Ruud;
J.Chem.Theor.Comp. 2010, DOI: 10.1021/ct100117s
XCFun Version 0.99 

================================================================================

----- Orbital basis set information -----
Your calculation utilizes the basis: ZORA-def2-SVP 
   Exponents from def2-SVP [F. Weigend and R. Ahlrichs, Phys. Chem. Chem. Phys. 7, 3297 (2005)],
   recontracted for ZORA by D. A. Pantazis.

The basis set includes element-specific modifications.

Your calculation utilizes the basis: SARC-ZORA-TZVP 
   Rb-Xe:  J. D. Rolfes, F. Neese and D. A. Pantazis, J. Comput. Chem. 41, 1842 (2020).
   La-Lu:  D. A. Pantazis and F. Neese, J. Chem. Theory Comput. 5, 2229 (2009).
   Hf-Hg:  D. A. Pantazis, X. Y. Chen, C. R. Landis and F. Neese, J. Chem. Theory Comput. 4, 908 (2008).
   Tl-Rn:  D. A. Pantazis and F. Neese, Theor. Chem. Acc. 131, 1292 (2012).
   Ac-Lr:  D. A. Pantazis and F. Neese, J. Chem. Theory Comput. 7, 677 (2011).

----- AuxJ basis set information -----
Your calculation utilizes the auxiliary basis: SARC/J 
   decontracted def2/J up to Kr:
   F. Weigend, Phys. Chem. Chem. Phys. 8, 1057 (2006)
   and SARC auxiliary basis sets beyond Kr:
   D. A. Pantazis and F. Neese, J. Chem. Theory Comput. 5, 2229 (2009).
   D. A. Pantazis, X. Y. Chen, C. R. Landis and F. Neese, J. Chem. Theory Comput. 4, 908 (2008).
   D. A. Pantazis and F. Neese, Theor. Chem. Acc. 131, 1292 (2012).
   D. A. Pantazis and F. Neese, J. Chem. Theory Comput. 7, 677 (2011).

================================================================================
                                        WARNINGS
                       Please study these warnings very carefully!
================================================================================

INFO   : Checking CIS options ...

INFO   : Since TDDFT/CIS Mode == RPA_AOINTS, the TAMMDANCOFF/TDA keyword is ignored. 


WARNING: (CIS/TDDFT): Spin-orbit needs TRIPLETS set to TRUE
  ===> : ajusting flags

WARNING: CIS/ROCIS methods need fully converged wavefunctions
  ===> : Setting SCFConvForced true
         You can overwrite this default with %scf ConvForced false 


INFO   : the flag for use of the SHARK integral package has been found!

================================================================================
                                       INPUT FILE
================================================================================
NAME = Ru-PRC_2_SOC-wB97XD_def2SVP.inp
|  1> %maxcore 6000
|  2> %pal
|  3>  nprocs 8
|  4> end
|  5> ! wB97X-D3 ZORA ZORA-DEF2-SVP SARC/J CPCM RI-SOMF(1X)
|  6> 
|  7> %TDDFT 
|  8>     NROOTS    50
|  9>     TDA       FALSE
| 10>     DOSOC     TRUE
| 11> END
| 12> 
| 13> %CPCM
| 14>     SMD		TRUE
| 15>     SMDsolvent	"DMF"
| 16> END
| 17> 
| 18> %BASIS
| 19>     NEWGTO  RU      "SARC-ZORA-TZVP" END
| 20>     NEWGTO  IR      "SARC-ZORA-TZVP" END
| 21> END
| 22> 
| 23> * xyz 2 1
| 24> C                  -1.53784900   -2.15013600    0.23517800
| 25> C                  -2.38018800   -0.46466800   -1.09999300
| 26> C                  -3.56614700   -1.18617300   -1.36526400
| 27> C                  -3.69959900   -2.43765400   -0.77850700
| 28> C                  -2.67275200   -2.95292900    0.03576900
| 29> C                  -0.46497400   -2.60349700    1.07024900
| 30> C                   1.60050600   -2.14777200    1.99861800
| 31> C                   1.61703600   -3.39442400    2.64460600
| 32> C                   0.55025900   -4.25580600    2.49263300
| 33> C                  -0.53862800   -3.86603100    1.68382000
| 34> H                  -2.22106700    0.52172200   -1.53709400
| 35> H                  -4.60610900   -3.02920500   -0.92369500
| 36> H                   2.43061300   -1.44737800    2.11083000
| 37> H                   2.47625100   -3.66032700    3.26116300
| 38> H                   0.53662800   -5.22889300    2.98813700
| 39> C                  -0.84182500    2.64800700   -0.08375400
| 40> C                   0.24460900    2.13897400   -2.05882800
| 41> C                  -0.17086400    3.35059800   -2.63403000
| 42> C                  -0.94881600    4.22174100   -1.90063000
| 43> C                  -1.30650500    3.87889100   -0.57879700
| 44> C                  -1.17386400    2.23701700    1.25005000
| 45> C                  -0.97735200    0.62286400    2.89129500
| 46> C                  -1.75146000    1.38813100    3.77845600
| 47> C                  -2.24574600    2.60954700    3.37185100
| 48> C                  -1.95925200    3.06819800    2.06787300
| 49> H                   0.85285300    1.43025400   -2.62433900
| 50> H                   0.12713500    3.58106900   -3.65728500
| 51> H                  -1.28918000    5.16819400   -2.32612800
| 52> H                  -0.57614700   -0.34688600    3.19233900
| 53> H                  -1.95045600    1.00057300    4.77806800
| 54> H                  -2.85189400    3.22337800    4.04150800
| 55> C                   3.22455500    0.40454200   -0.17993700
| 56> C                   2.56002600    1.58883400    1.68911400
| 57> C                   3.87282600    2.03544100    1.90965600
| 58> C                   4.87895500    1.64358900    1.05188300
| 59> C                   4.56582600    0.80010500   -0.03572600
| 60> C                   2.84025800   -0.45378500   -1.26299800
| 61> C                   1.13249400   -1.58285500   -2.33452900
| 62> C                   2.02520500   -2.07902200   -3.29812600
| 63> C                   3.36036500   -1.74137300   -3.22787900
| 64> C                   3.80370400   -0.90132600   -2.18363800
| 65> H                   1.74912100    1.88320200    2.35815200
| 66> H                   5.90881900    1.97475400    1.20153200
| 67> H                   0.07077900   -1.83486100   -2.37354100
| 68> H                   4.07554000   -2.11255700   -3.96505300
| 69> N                   2.24201600    0.79422900    0.67563300
| 70> N                   0.58830600   -1.75896900    1.23413600
| 71> N                  -0.69466900    1.03273000    1.66184300
| 72> N                  -1.40253300   -0.92668400   -0.33599100
| 73> N                  -0.08393200    1.79260200   -0.82099100
| 74> N                   1.52525900   -0.79115400   -1.34517000
| 75> Ru                  0.37160600    0.02758900    0.18062600
| 76> C                   5.53522700    0.32943800   -0.98945500
| 77> C                   5.17095800   -0.48451400   -2.01616100
| 78> C                  -1.70695400   -4.67811700    1.46128900
| 79> C                  -2.72910700   -4.24077900    0.67804400
| 80> C                  -2.42409100    4.32392300    1.54034500
| 81> C                  -2.11269000    4.71128300    0.27448100
| 82> H                   5.91141400   -0.83854800   -2.73636400
| 83> H                   6.57423200    0.64258900   -0.86778000
| 84> H                  -3.61363700   -4.86077100    0.51842500
| 85> H                  -1.75450000   -5.65695900    1.94291200
| 86> H                  -2.46893100    5.66487200   -0.12056500
| 87> H                  -3.03520000    4.96044600    2.18356800
| 88> H                   4.07523200    2.68635800    2.76075900
| 89> H                   1.64496000   -2.72546300   -4.08969300
| 90> C                  -4.61800600   -0.58277100   -2.23017000
| 91> C                  -5.45901300   -1.35409800   -2.93319600
| 92> H                  -5.39236000   -2.44541000   -2.93318400
| 93> H                  -6.24115800   -0.90580400   -3.55229700
| 94> C                  -4.68323300    0.92133000   -2.29016800
| 95> H                  -4.68876300    1.36359100   -1.28107500
| 96> H                  -3.81314000    1.34029900   -2.82166200
| 97> H                  -5.58618700    1.25021400   -2.82194600
| 98> *
| 99> 
|100>                          ****END OF INPUT****
================================================================================

                       ****************************
                       * Single Point Calculation *
                       ****************************

---------------------------------
CARTESIAN COORDINATES (ANGSTROEM)
---------------------------------
  C     -1.537849   -2.150136    0.235178
  C     -2.380188   -0.464668   -1.099993
  C     -3.566147   -1.186173   -1.365264
  C     -3.699599   -2.437654   -0.778507
  C     -2.672752   -2.952929    0.035769
  C     -0.464974   -2.603497    1.070249
  C      1.600506   -2.147772    1.998618
  C      1.617036   -3.394424    2.644606
  C      0.550259   -4.255806    2.492633
  C     -0.538628   -3.866031    1.683820
  H     -2.221067    0.521722   -1.537094
  H     -4.606109   -3.029205   -0.923695
  H      2.430613   -1.447378    2.110830
  H      2.476251   -3.660327    3.261163
  H      0.536628   -5.228893    2.988137
  C     -0.841825    2.648007   -0.083754
  C      0.244609    2.138974   -2.058828
  C     -0.170864    3.350598   -2.634030
  C     -0.948816    4.221741   -1.900630
  C     -1.306505    3.878891   -0.578797
  C     -1.173864    2.237017    1.250050
  C     -0.977352    0.622864    2.891295
  C     -1.751460    1.388131    3.778456
  C     -2.245746    2.609547    3.371851
  C     -1.959252    3.068198    2.067873
  H      0.852853    1.430254   -2.624339
  H      0.127135    3.581069   -3.657285
  H     -1.289180    5.168194   -2.326128
  H     -0.576147   -0.346886    3.192339
  H     -1.950456    1.000573    4.778068
  H     -2.851894    3.223378    4.041508
  C      3.224555    0.404542   -0.179937
  C      2.560026    1.588834    1.689114
  C      3.872826    2.035441    1.909656
  C      4.878955    1.643589    1.051883
  C      4.565826    0.800105   -0.035726
  C      2.840258   -0.453785   -1.262998
  C      1.132494   -1.582855   -2.334529
  C      2.025205   -2.079022   -3.298126
  C      3.360365   -1.741373   -3.227879
  C      3.803704   -0.901326   -2.183638
  H      1.749121    1.883202    2.358152
  H      5.908819    1.974754    1.201532
  H      0.070779   -1.834861   -2.373541
  H      4.075540   -2.112557   -3.965053
  N      2.242016    0.794229    0.675633
  N      0.588306   -1.758969    1.234136
  N     -0.694669    1.032730    1.661843
  N     -1.402533   -0.926684   -0.335991
  N     -0.083932    1.792602   -0.820991
  N      1.525259   -0.791154   -1.345170
  Ru     0.371606    0.027589    0.180626
  C      5.535227    0.329438   -0.989455
  C      5.170958   -0.484514   -2.016161
  C     -1.706954   -4.678117    1.461289
  C     -2.729107   -4.240779    0.678044
  C     -2.424091    4.323923    1.540345
  C     -2.112690    4.711283    0.274481
  H      5.911414   -0.838548   -2.736364
  H      6.574232    0.642589   -0.867780
  H     -3.613637   -4.860771    0.518425
  H     -1.754500   -5.656959    1.942912
  H     -2.468931    5.664872   -0.120565
  H     -3.035200    4.960446    2.183568
  H      4.075232    2.686358    2.760759
  H      1.644960   -2.725463   -4.089693
  C     -4.618006   -0.582771   -2.230170
  C     -5.459013   -1.354098   -2.933196
  H     -5.392360   -2.445410   -2.933184
  H     -6.241158   -0.905804   -3.552297
  C     -4.683233    0.921330   -2.290168
  H     -4.688763    1.363591   -1.281075
  H     -3.813140    1.340299   -2.821662
  H     -5.586187    1.250214   -2.821946

----------------------------
CARTESIAN COORDINATES (A.U.)
----------------------------
  NO LB      ZA    FRAG     MASS         X           Y           Z
   0 C     6.0000    0    12.011   -2.906113   -4.063168    0.444422
   1 C     6.0000    0    12.011   -4.497903   -0.878095   -2.078686
   2 C     6.0000    0    12.011   -6.739041   -2.241542   -2.579975
   3 C     6.0000    0    12.011   -6.991229   -4.606498   -1.471165
   4 C     6.0000    0    12.011   -5.050769   -5.580227    0.067594
   5 C     6.0000    0    12.011   -0.878674   -4.919896    2.022478
   6 C     6.0000    0    12.011    3.024518   -4.058701    3.776841
   7 C     6.0000    0    12.011    3.055755   -6.414532    4.997581
   8 C     6.0000    0    12.011    1.039839   -8.042308    4.710394
   9 C     6.0000    0    12.011   -1.017859   -7.305740    3.181959
  10 H     1.0000    0     1.008   -4.197208    0.985912   -2.904687
  11 H     1.0000    0     1.008   -8.704285   -5.724368   -1.745531
  12 H     1.0000    0     1.008    4.593193   -2.735148    3.988891
  13 H     1.0000    0     1.008    4.679436   -6.917016    6.162705
  14 H     1.0000    0     1.008    1.014080   -9.881176    5.646761
  15 C     6.0000    0    12.011   -1.590819    5.004008   -0.158272
  16 C     6.0000    0    12.011    0.462244    4.042075   -3.890621
  17 C     6.0000    0    12.011   -0.322886    6.331713   -4.977595
  18 C     6.0000    0    12.011   -1.793002    7.977934   -3.591670
  19 C     6.0000    0    12.011   -2.468937    7.330042   -1.093768
  20 C     6.0000    0    12.011   -2.218281    4.227349    2.362252
  21 C     6.0000    0    12.011   -1.846928    1.177042    5.463756
  22 C     6.0000    0    12.011   -3.309780    2.623187    7.140247
  23 C     6.0000    0    12.011   -4.243845    4.931329    6.371875
  24 C     6.0000    0    12.011   -3.702450    5.798054    3.907714
  25 H     1.0000    0     1.008    1.611659    2.702788   -4.959282
  26 H     1.0000    0     1.008    0.240250    6.767240   -6.911267
  27 H     1.0000    0     1.008   -2.436197    9.766471   -4.395745
  28 H     1.0000    0     1.008   -1.088760   -0.655520    6.032646
  29 H     1.0000    0     1.008   -3.685828    1.890809    9.029240
  30 H     1.0000    0     1.008   -5.389299    6.091302    7.637343
  31 C     6.0000    0    12.011    6.093526    0.764474   -0.340032
  32 C     6.0000    0    12.011    4.837748    3.002461    3.191963
  33 C     6.0000    0    12.011    7.318581    3.846426    3.608727
  34 C     6.0000    0    12.011    9.219889    3.105933    1.987771
  35 C     6.0000    0    12.011    8.628161    1.511979   -0.067512
  36 C     6.0000    0    12.011    5.367310   -0.857529   -2.386720
  37 C     6.0000    0    12.011    2.140104   -2.991162   -4.411620
  38 C     6.0000    0    12.011    3.827083   -3.928782   -6.232555
  39 C     6.0000    0    12.011    6.350170   -3.290718   -6.099807
  40 C     6.0000    0    12.011    7.187959   -1.703259   -4.126478
  41 H     1.0000    0     1.008    3.305360    3.558736    4.456261
  42 H     1.0000    0     1.008   11.166050    3.731744    2.270566
  43 H     1.0000    0     1.008    0.133753   -3.467385   -4.485342
  44 H     1.0000    0     1.008    7.701654   -3.992154   -7.492864
  45 N     7.0000    0    14.007    4.236796    1.500875    1.276761
  46 N     7.0000    0    14.007    1.111737   -3.323970    2.332179
  47 N     7.0000    0    14.007   -1.312734    1.951577    3.140428
  48 N     7.0000    0    14.007   -2.650403   -1.751179   -0.634931
  49 N     7.0000    0    14.007   -0.158608    3.387527   -1.551448
  50 N     7.0000    0    14.007    2.882322   -1.495064   -2.542003
  51 Ru   44.0000    0   101.070    0.702234    0.052136    0.341334
  52 C     6.0000    0    12.011   10.460063    0.622548   -1.869799
  53 C     6.0000    0    12.011    9.771694   -0.915599   -3.809992
  54 C     6.0000    0    12.011   -3.225676   -8.840360    2.761436
  55 C     6.0000    0    12.011   -5.157265   -8.013911    1.281317
  56 C     6.0000    0    12.011   -4.580868    8.171030    2.910830
  57 C     6.0000    0    12.011   -3.992406    8.903035    0.518694
  58 H     1.0000    0     1.008   11.170954   -1.584626   -5.170979
  59 H     1.0000    0     1.008   12.423498    1.214317   -1.639867
  60 H     1.0000    0     1.008   -6.828784   -9.185526    0.979681
  61 H     1.0000    0     1.008   -3.315525  -10.690103    3.671572
  62 H     1.0000    0     1.008   -4.665603   10.705057   -0.227835
  63 H     1.0000    0     1.008   -5.735697    9.373884    4.126346
  64 H     1.0000    0     1.008    7.701072    5.076481    5.217078
  65 H     1.0000    0     1.008    3.108524   -5.150379   -7.728400
  66 C     6.0000    0    12.011   -8.726767   -1.101278   -4.214411
  67 C     6.0000    0    12.011  -10.316040   -2.558874   -5.542937
  68 H     1.0000    0     1.008  -10.190084   -4.621155   -5.542914
  69 H     1.0000    0     1.008  -11.794079   -1.711721   -6.712868
  70 C     6.0000    0    12.011   -8.850028    1.741061   -4.327790
  71 H     1.0000    0     1.008   -8.860478    2.576814   -2.420881
  72 H     1.0000    0     1.008   -7.205790    2.532798   -5.332168
  73 H     1.0000    0     1.008  -10.556364    2.362562   -5.332705

--------------------------------
INTERNAL COORDINATES (ANGSTROEM)
--------------------------------
 C      0   0   0     0.000000000000     0.00000000     0.00000000
 C      1   0   0     2.309333013921     0.00000000     0.00000000
 C      2   1   0     1.413307085579    92.40728213     0.00000000
 C      3   2   1     1.388631667043   117.47887345     0.22345936
 C      1   2   3     1.404366536749    92.31255913     0.13629408
 C      1   2   3     1.433157540882   147.22689597   181.06310255
 C      6   1   2     2.309926818362   147.26271966     0.00000000
 C      7   6   1     1.404177676132    91.16111912   180.02395900
 C      8   7   6     1.379524523299   119.64162783   359.70348749
 C      6   1   2     1.405662258479   119.94975793   179.63692186
 H      2   1   3     1.090569580055   146.99655378   180.65957675
 H      4   3   2     1.092141255079   120.78000645   178.22440483
 H      7   6   1     1.091888693791   147.95707738     0.28166337
 H      8   7   6     1.090457406726   119.07024077   179.89191497
 H      9   8   7     1.092066082133   121.06730137   180.29319906
 C     11   2   1     2.921573814126   121.85461593   323.35967153
 C     16  11   2     2.310924217044    68.68320079   120.68233093
 C     17  16  11     1.404103939140    91.19951294   108.28107532
 C     18  17  16     1.379121097204   119.61290257   359.70673906
 C     16  11   2     1.405727745940   107.82002724   206.54751613
 C     16  11   2     1.434641344740    98.32169752   331.97408289
 C     21  16  11     2.310366209842   147.23680540    63.77236741
 C     22  21  16     1.404254754976    91.21280000   179.53829043
 C     23  22  21     1.378950079182   119.60504868     0.15928878
 C     21  16  11     1.405891398592   120.04964120   243.40355737
 H     17  16  11     1.091809275037   147.94880630   288.75732039
 H     18  17  16     1.090399505166   119.07498478   179.94489960
 H     19  18  17     1.092094080979   121.06696025   180.29668879
 H     22  21  16     1.091791190870   147.96166282   359.78835880
 H     23  22  21     1.090424120205   119.08214074   180.07149955
 H     24  23  22     1.092082593998   121.06472237   179.88404230
 C     13   7   6     3.050830220457   120.66750383   326.75609729
 C     32  13   7     2.310302571895    68.21386136   118.62048662
 C     33  32  13     1.404115531647    91.21391918   110.57865157
 C     34  33  32     1.378991687456   119.60904116   359.88525887
 C     32  13   7     1.405800410774   110.00302325   203.37633803
 C     32  13   7     1.434374620822    97.70065933   329.37228625
 C     37  32  13     2.310721884727   147.19760721    61.83857447
 C     38  37  32     1.404148781226    91.20427268   179.76476010
 C     39  38  37     1.378982854792   119.60931584   359.91856190
 C     37  32  13     1.405737938307   120.09253807   241.45828843
 H     33  32  13     1.091710256384   147.95813751   290.82932837
 H     35  34  33     1.092101157825   121.10644812   180.12197144
 H     38  37  32     1.091910115992   147.99070113     0.00000000
 H     40  39  38     1.092098140625   121.09411920   180.07149036
 N     33  32  13     1.326525990505    31.10783078   290.76666419
 N      7   6   1     1.326706200005    31.13249417     0.23029853
 N     22  21  16     1.326443378644    31.10805643   359.55627687
 N      2   1   3     1.323996653804    30.94639188   180.40734683
 N     17  16  11     1.326707650402    31.09291127   288.67952848
 N     38  37  32     1.326606968739    31.10193307   359.92221981
 Ru    49   2   1     2.079687302106   127.81748592   182.03242905
 C     36  32  13     1.439049939763   118.86197249   112.07544796
 C     53  36  32     1.359902560149   121.04318443     0.00000000
 C     10   6   1     1.440135187971   118.78593479   359.65177972
 C     55  10   6     1.359975739371   121.15783677   359.75903234
 C     25  21  16     1.439168635821   118.88566526     0.33847270
 C     57  25  21     1.359937505512   121.04861519   359.86858515
 H     54  53  36     1.091928350351   120.68944743   180.02198212
 H     53  36  32     1.091970578565   118.25012628   180.01877224
 H     56  55  10     1.091907334038   120.69372176   180.30307222
 H     55  10   6     1.091949173363   118.20683268   180.03130650
 H     58  57  25     1.091925351440   120.71759698   179.95183585
 H     57  25  21     1.091948518539   118.25935681   179.86574654
 H     34  33  32     1.090429936463   119.07874237   179.98850614
 H     39  38  37     1.090435941262   119.07433320   179.96216976
 C      3   2   1     1.489484380019   119.65454807   179.32521354
 C     67   3   2     1.340329687672   120.96752316   153.04090559
 H     68  67   3     1.093345555576   122.42178697   357.84064151
 H     68  67   3     1.093619842387   120.64967881   178.87242280
 C     67   3   2     1.506709706524   117.26463911   333.69388994
 H     71  67   3     1.101768603505   111.37443519   310.05046306
 H     71  67   3     1.102307907822   111.37399822    69.46047568
 H     71  67   3     1.098307084952   110.71986212   189.09041226

---------------------------
INTERNAL COORDINATES (A.U.)
---------------------------
 C      0   0   0     0.000000000000     0.00000000     0.00000000
 C      1   0   0     4.364006948334     0.00000000     0.00000000
 C      2   1   0     2.670763334874    92.40728213     0.00000000
 C      3   2   1     2.624133551601   117.47887345     0.22345936
 C      1   2   3     2.653868146098    92.31255913     0.13629408
 C      1   2   3     2.708275259031   147.22689597   181.06310255
 C      6   1   2     4.365129076103   147.26271966     0.00000000
 C      7   6   1     2.653511251256    91.16111912   180.02395900
 C      8   7   6     2.606923544062   119.64162783   359.70348749
 C      6   1   2     2.656316705315   119.94975793   179.63692186
 H      2   1   3     2.060877836290   146.99655378   180.65957675
 H      4   3   2     2.063847871656   120.78000645   178.22440483
 H      7   6   1     2.063370599990   147.95707738     0.28166337
 H      8   7   6     2.060665859418   119.07024077   179.89191497
 H      9   8   7     2.063705815376   121.06730137   180.29319906
 C     11   2   1     5.520974388735   121.85461593   323.35967153
 C     16  11   2     4.367013886460    68.68320079   120.68233093
 C     17  16  11     2.653371908535    91.19951294   108.28107532
 C     18  17  16     2.606161179228   119.61290257   359.70673906
 C     16  11   2     2.656440458681   107.82002724   206.54751613
 C     16  11   2     2.711079241959    98.32169752   331.97408289
 C     21  16  11     4.365959405666   147.23680540    63.77236741
 C     22  21  16     2.653656909162    91.21280000   179.53829043
 C     23  22  21     2.605838002004   119.60504868     0.15928878
 C     21  16  11     2.656749717374   120.04964120   243.40355737
 H     17  16  11     2.063220520295   147.94880630   288.75732039
 H     18  17  16     2.060556441328   119.07498478   179.94489960
 H     19  18  17     2.063758725526   121.06696025   180.29668879
 H     22  21  16     2.063186346172   147.96166282   359.78835880
 H     23  22  21     2.060602957009   119.08214074   180.07149955
 H     24  23  22     2.063737018279   121.06472237   179.88404230
 C     13   7   6     5.765233597754   120.66750383   326.75609729
 C     32  13   7     4.365839147376    68.21386136   118.62048662
 C     33  32  13     2.653393815199    91.21391918   110.57865157
 C     34  33  32     2.605916630247   119.60904116   359.88525887
 C     32  13   7     2.656577775316   110.00302325   203.37633803
 C     32  13   7     2.710575206801    97.70065933   329.37228625
 C     37  32  13     4.366631533793   147.19760721    61.83857447
 C     38  37  32     2.653456647797    91.20427268   179.76476010
 C     39  38  37     2.605899938930   119.60931584   359.91856190
 C     37  32  13     2.656459719464   120.09253807   241.45828843
 H     33  32  13     2.063033402158   147.95813751   290.82932837
 H     35  34  33     2.063772098827   121.10644812   180.12197144
 H     38  37  32     2.063411082082   147.99070113     0.00000000
 H     40  39  38     2.063766397146   121.09411920   180.07149036
 N     33  32  13     2.506770831584    31.10783078   290.76666419
 N      7   6   1     2.507111378186    31.13249417     0.23029853
 N     22  21  16     2.506614717791    31.10805643   359.55627687
 N      2   1   3     2.501991077918    30.94639188   180.40734683
 N     17  16  11     2.507114119037    31.09291127   288.67952848
 N     38  37  32     2.506923858268    31.10193307   359.92221981
 Ru    49   2   1     3.930039445173   127.81748592   182.03242905
 C     36  32  13     2.719410279187   118.86197249   112.07544796
 C     53  36  32     2.569843407501   121.04318443     0.00000000
 C     10   6   1     2.721461101089   118.78593479   359.65177972
 C     55  10   6     2.569981696188   121.15783677   359.75903234
 C     25  21  16     2.719634582230   118.88566526     0.33847270
 C     57  25  21     2.569909444665   121.04861519   359.86858515
 H     54  53  36     2.063445540028   120.68944743   180.02198212
 H     53  36  32     2.063525339787   118.25012628   180.01877224
 H     56  55  10     2.063405824951   120.69372176   180.30307222
 H     55  10   6     2.063484889819   118.20683268   180.03130650
 H     58  57  25     2.063439872908   120.71759698   179.95183585
 H     57  25  21     2.063483652379   118.25935681   179.86574654
 H     34  33  32     2.060613948144   119.07874237   179.98850614
 H     39  38  37     2.060625295569   119.07433320   179.96216976
 C      3   2   1     2.814717558990   119.65454807   179.32521354
 C     67   3   2     2.532856038864   120.96752316   153.04090559
 H     68  67   3     2.066123669778   122.42178697   357.84064151
 H     68  67   3     2.066641996733   120.64967881   178.87242280
 C     67   3   2     2.847268708651   117.26463911   333.69388994
 H     71  67   3     2.082040923578   111.37443519   310.05046306
 H     71  67   3     2.083060061039   111.37399822    69.46047568
 H     71  67   3     2.075499601505   110.71986212   189.09041226

---------------------
BASIS SET INFORMATION
---------------------
There are 4 groups of distinct atoms

 Group   1 Type C   : 7s4p1d contracted to 3s2p1d pattern {511/31/1}
 Group   2 Type H   : 4s1p contracted to 2s1p pattern {31/1}
 Group   3 Type N   : 7s4p1d contracted to 3s2p1d pattern {511/31/1}
 Group   4 Type Ru  : 22s15p9d1f contracted to 15s10p5d1f pattern {811111111111111/6111111111/51111/1}

Atom   0C    basis set group =>   1
Atom   1C    basis set group =>   1
Atom   2C    basis set group =>   1
Atom   3C    basis set group =>   1
Atom   4C    basis set group =>   1
Atom   5C    basis set group =>   1
Atom   6C    basis set group =>   1
Atom   7C    basis set group =>   1
Atom   8C    basis set group =>   1
Atom   9C    basis set group =>   1
Atom  10H    basis set group =>   2
Atom  11H    basis set group =>   2
Atom  12H    basis set group =>   2
Atom  13H    basis set group =>   2
Atom  14H    basis set group =>   2
Atom  15C    basis set group =>   1
Atom  16C    basis set group =>   1
Atom  17C    basis set group =>   1
Atom  18C    basis set group =>   1
Atom  19C    basis set group =>   1
Atom  20C    basis set group =>   1
Atom  21C    basis set group =>   1
Atom  22C    basis set group =>   1
Atom  23C    basis set group =>   1
Atom  24C    basis set group =>   1
Atom  25H    basis set group =>   2
Atom  26H    basis set group =>   2
Atom  27H    basis set group =>   2
Atom  28H    basis set group =>   2
Atom  29H    basis set group =>   2
Atom  30H    basis set group =>   2
Atom  31C    basis set group =>   1
Atom  32C    basis set group =>   1
Atom  33C    basis set group =>   1
Atom  34C    basis set group =>   1
Atom  35C    basis set group =>   1
Atom  36C    basis set group =>   1
Atom  37C    basis set group =>   1
Atom  38C    basis set group =>   1
Atom  39C    basis set group =>   1
Atom  40C    basis set group =>   1
Atom  41H    basis set group =>   2
Atom  42H    basis set group =>   2
Atom  43H    basis set group =>   2
Atom  44H    basis set group =>   2
Atom  45N    basis set group =>   3
Atom  46N    basis set group =>   3
Atom  47N    basis set group =>   3
Atom  48N    basis set group =>   3
Atom  49N    basis set group =>   3
Atom  50N    basis set group =>   3
Atom  51Ru   basis set group =>   4
Atom  52C    basis set group =>   1
Atom  53C    basis set group =>   1
Atom  54C    basis set group =>   1
Atom  55C    basis set group =>   1
Atom  56C    basis set group =>   1
Atom  57C    basis set group =>   1
Atom  58H    basis set group =>   2
Atom  59H    basis set group =>   2
Atom  60H    basis set group =>   2
Atom  61H    basis set group =>   2
Atom  62H    basis set group =>   2
Atom  63H    basis set group =>   2
Atom  64H    basis set group =>   2
Atom  65H    basis set group =>   2
Atom  66C    basis set group =>   1
Atom  67C    basis set group =>   1
Atom  68H    basis set group =>   2
Atom  69H    basis set group =>   2
Atom  70C    basis set group =>   1
Atom  71H    basis set group =>   2
Atom  72H    basis set group =>   2
Atom  73H    basis set group =>   2
---------------------------------
AUXILIARY/J BASIS SET INFORMATION
---------------------------------
There are 4 groups of distinct atoms

 Group   1 Type C   : 12s5p4d2f1g contracted to 12s5p4d2f1g pattern {111111111111/11111/1111/11/1}
 Group   2 Type H   : 5s2p1d contracted to 5s2p1d pattern {11111/11/1}
 Group   3 Type N   : 12s5p4d2f1g contracted to 12s5p4d2f1g pattern {111111111111/11111/1111/11/1}
 Group   4 Type Ru  : 23s7p6d3f4g contracted to 23s7p6d3f4g pattern {11111111111111111111111/1111111/111111/111/1111}

Atom   0C    basis set group =>   1
Atom   1C    basis set group =>   1
Atom   2C    basis set group =>   1
Atom   3C    basis set group =>   1
Atom   4C    basis set group =>   1
Atom   5C    basis set group =>   1
Atom   6C    basis set group =>   1
Atom   7C    basis set group =>   1
Atom   8C    basis set group =>   1
Atom   9C    basis set group =>   1
Atom  10H    basis set group =>   2
Atom  11H    basis set group =>   2
Atom  12H    basis set group =>   2
Atom  13H    basis set group =>   2
Atom  14H    basis set group =>   2
Atom  15C    basis set group =>   1
Atom  16C    basis set group =>   1
Atom  17C    basis set group =>   1
Atom  18C    basis set group =>   1
Atom  19C    basis set group =>   1
Atom  20C    basis set group =>   1
Atom  21C    basis set group =>   1
Atom  22C    basis set group =>   1
Atom  23C    basis set group =>   1
Atom  24C    basis set group =>   1
Atom  25H    basis set group =>   2
Atom  26H    basis set group =>   2
Atom  27H    basis set group =>   2
Atom  28H    basis set group =>   2
Atom  29H    basis set group =>   2
Atom  30H    basis set group =>   2
Atom  31C    basis set group =>   1
Atom  32C    basis set group =>   1
Atom  33C    basis set group =>   1
Atom  34C    basis set group =>   1
Atom  35C    basis set group =>   1
Atom  36C    basis set group =>   1
Atom  37C    basis set group =>   1
Atom  38C    basis set group =>   1
Atom  39C    basis set group =>   1
Atom  40C    basis set group =>   1
Atom  41H    basis set group =>   2
Atom  42H    basis set group =>   2
Atom  43H    basis set group =>   2
Atom  44H    basis set group =>   2
Atom  45N    basis set group =>   3
Atom  46N    basis set group =>   3
Atom  47N    basis set group =>   3
Atom  48N    basis set group =>   3
Atom  49N    basis set group =>   3
Atom  50N    basis set group =>   3
Atom  51Ru   basis set group =>   4
Atom  52C    basis set group =>   1
Atom  53C    basis set group =>   1
Atom  54C    basis set group =>   1
Atom  55C    basis set group =>   1
Atom  56C    basis set group =>   1
Atom  57C    basis set group =>   1
Atom  58H    basis set group =>   2
Atom  59H    basis set group =>   2
Atom  60H    basis set group =>   2
Atom  61H    basis set group =>   2
Atom  62H    basis set group =>   2
Atom  63H    basis set group =>   2
Atom  64H    basis set group =>   2
Atom  65H    basis set group =>   2
Atom  66C    basis set group =>   1
Atom  67C    basis set group =>   1
Atom  68H    basis set group =>   2
Atom  69H    basis set group =>   2
Atom  70C    basis set group =>   1
Atom  71H    basis set group =>   2
Atom  72H    basis set group =>   2
Atom  73H    basis set group =>   2


           ************************************************************
           *        Program running with 8 parallel MPI-processes     *
           *              working on a common directory               *
           ************************************************************
------------------------------------------------------------------------------
                           ORCA GTO INTEGRAL CALCULATION
                           -- RI-GTO INTEGRALS CHOSEN --
------------------------------------------------------------------------------
------------------------------------------------------------------------------
                   ___                                                        
                  /   \      - P O W E R E D   B Y -                         
                 /     \                                                     
                 |  |  |   _    _      __       _____    __    __             
                 |  |  |  | |  | |    /  \     |  _  \  |  |  /  |          
                  \  \/   | |  | |   /    \    | | | |  |  | /  /          
                 / \  \   | |__| |  /  /\  \   | |_| |  |  |/  /          
                |  |  |   |  __  | /  /__\  \  |    /   |      \           
                |  |  |   | |  | | |   __   |  |    \   |  |\   \          
                \     /   | |  | | |  |  |  |  | |\  \  |  | \   \       
                 \___/    |_|  |_| |__|  |__|  |_| \__\ |__|  \__/        
                                                                              
                      - O R C A' S   B I G   F R I E N D -                    
                                      &                                       
                       - I N T E G R A L  F E E D E R -                       
                                                                              
 v1 FN, 2020, v2 2021                                                         
------------------------------------------------------------------------------


Reading SHARK input file Ru-PRC_2_SOC-wB97XD_def2SVP.SHARKINP.tmp ... ok
----------------------
SHARK INTEGRAL PACKAGE
----------------------

Number of atoms                             ...     74
Number of basis functions                   ...    847
Number of shells                            ...    385
Maximum angular momentum                    ...      3
Integral batch strategy                     ... SHARK/LIBINT Hybrid
RI-J (if used) integral strategy            ... SPLIT-RIJ (Revised 2003 algorithm where possible)
Printlevel                                  ...      1
Contraction scheme used                     ... SEGMENTED contraction
Coulomb Range Separation                    ... NOT USED
Exchange Range Separation                   ... Long Range
   Mu parameter                             ...  0.250000
   Scaling (regular/separated)              ...  0.195728  0.804272
Finite Nucleus Model                        ... NOT USED
Auxiliary Coulomb fitting basis             ... AVAILABLE
   # of basis functions in Aux-J            ...   3729
   # of shells in Aux-J                     ...   1347
   Maximum angular momentum in Aux-J        ...      4
Auxiliary J/K fitting basis                 ... NOT available
Auxiliary Correlation fitting basis         ... NOT available
Auxiliary 'external' fitting basis          ... NOT available
Integral threshold                          ...     1.000000e-10
Primitive cut-off                           ...     1.000000e-11
Primitive pair pre-selection threshold      ...     1.000000e-11

Calculating pre-screening integrals         ... done (  0.1 sec) Dimension = 385
Organizing shell pair data                  ... done (  0.2 sec)
Shell pair information
Total number of shell pairs                 ...     74305
Shell pairs after pre-screening             ...     45538
Total number of primitive shell pairs       ...    265350
Primitive shell pairs kept                  ...     94520
          la=0 lb=0:  13233 shell pairs
          la=1 lb=0:  16876 shell pairs
          la=1 lb=1:   5463 shell pairs
          la=2 lb=0:   5558 shell pairs
          la=2 lb=1:   3617 shell pairs
          la=2 lb=2:    513 shell pairs
          la=3 lb=0:    148 shell pairs
          la=3 lb=1:     94 shell pairs
          la=3 lb=2:     35 shell pairs
          la=3 lb=3:      1 shell pairs

Calculating one electron integrals          ... done (  0.2 sec)
Calculating RI/J V-Matrix + Cholesky decomp.... done (  0.8 sec)
Calculating Nuclear repulsion               ... done (  0.0 sec) ENN=   7278.741801167600 Eh

SHARK setup successfully completed in   1.9 seconds

Maximum memory used throughout the entire GTOINT-calculation: 95.3 MB


           ************************************************************
           *        Program running with 8 parallel MPI-processes     *
           *              working on a common directory               *
           ************************************************************
------------------------------------------------------------------------------
                          ORCA RELATIVISTIC HAMILTONIAN
------------------------------------------------------------------------------

Relativistic Method            ... ZORA(MP)
Treatment of potential         ... Van Wuellen
Nucleus model                  ... Point Nucleus
Speed of light used            ... 137.03598950000000


            *************************************************
            *         ZERO ORDER REGULAR APPROXIMATION      *
            *                     ZORA(MP)                  *
            *            Programmed by FN according to      *
            *                   C. van Wuellen              *
            *       J. Chem. Phys. (1998) vol 109, 392-399  *
            *************************************************

Terms included in model potential: +V(e,N)+V(C)+V(Xa)+V(VWN-V)
Basis function cutoff value   ... 1.000000e-10
Loading the fitted atomic densities (ZORA)   ... done
Calculating the cutoffs                      ... done
Number of fit functions                      ... 664
Setting up the integration grid ... done

Maximum memory used throughout the entire REL-calculation: 94.7 MB


           ************************************************************
           *        Program running with 8 parallel MPI-processes     *
           *              working on a common directory               *
           ************************************************************
-------------------------------------------------------------------------------
                                 ORCA SCF
-------------------------------------------------------------------------------

------------
SCF SETTINGS
------------
Hamiltonian:
 Density Functional     Method          .... DFT(GTOs)
 Exchange Functional    Exchange        .... WB97X-D3
 Correlation Functional Correlation     .... WB97X-D3
 Gradients option       PostSCFGGA      .... off
 Hybrid DFT is turned on
   Fraction HF Exchange ScalHFX         ....  0.195728
   Scaling of DF-GGA-X  ScalDFX         ....  0.000000
   Scaling of DF-GGA-C  ScalDFC         ....  1.000000
   Scaling of DF-LDA-C  ScalLDAC        ....  1.000000
   Perturbative correction              ....  0.000000
   Density functional embedding theory  .... OFF
 Long-range corrected/Screened/Range-Separated Hybrid DFT is turned on
   Amount of maximum screened exact exchange              ....  0.804272
   Range separation parameter mu (erf(mu*r12)/r12)        ....  0.250000
 RI-approximation to the Coulomb term is turned on
   Number of AuxJ basis functions       .... 3729
   RIJ-COSX (HFX calculated with COS-X)).... on

Relativistic Settings:
 Scalar relativistic method             .... ZORA
 Speed of light used       Velit        ....       137.035989
Orbital energies will be scaled


General Settings:
 Integral files         IntName         .... Ru-PRC_2_SOC-wB97XD_def2SVP
 Hartree-Fock type      HFTyp           .... RHF
 Total Charge           Charge          ....    2
 Multiplicity           Mult            ....    1
 Number of Electrons    NEL             ....  346
 Basis Dimension        Dim             ....  847
 Nuclear Repulsion      ENuc            ....   7278.7418011676 Eh

Convergence Acceleration:
 DIIS                   CNVDIIS         .... on
   Start iteration      DIISMaxIt       ....    12
   Startup error        DIISStart       ....  0.200000
   # of expansion vecs  DIISMaxEq       ....     5
   Bias factor          DIISBfac        ....   1.050
   Max. coefficient     DIISMaxC        ....  10.000
 Trust-Rad. Augm. Hess. CNVTRAH         .... auto
   Auto Start mean grad. ratio tolernc. ....  1.125000
   Auto Start start iteration           ....    20
   Auto Start num. interpolation iter.  ....    10
   Max. Number of Micro iterations      ....    16
   Max. Number of Macro iterations      .... Maxiter - #DIIS iter
   Number of Davidson start vectors     ....     2
   Converg. threshold I  (grad. norm)   ....   5.000e-05
   Converg. threshold II (energy diff.) ....   1.000e-06
   Grad. Scal. Fac. for Micro threshold ....   0.100
   Minimum threshold for Micro iter.    ....   0.010
   NR start threshold (gradient norm)   ....   0.001
   Initial trust radius                 ....   0.400
   Minimum AH scaling param. (alpha)    ....   1.000
   Maximum AH scaling param. (alpha)    .... 1000.000
   Orbital update algorithm             .... Taylor
   White noise on init. David. guess    .... on
   Maximum white noise                  ....   0.010
   Quad. conv. algorithm                .... NR
 SOSCF                  CNVSOSCF        .... off
 Level Shifting         CNVShift        .... on
   Level shift para.    LevelShift      ....    0.2500
   Turn off err/grad.   ShiftErr        ....    0.0010
 Zerner damping         CNVZerner       .... off
 Static damping         CNVDamp         .... on
   Fraction old density DampFac         ....    0.7000
   Max. Damping (<1)    DampMax         ....    0.9800
   Min. Damping (>=0)   DampMin         ....    0.0000
   Turn off err/grad.   DampErr         ....    0.1000
 Fernandez-Rico         CNVRico         .... off

SCF Procedure:
 Maximum # iterations   MaxIter         ....   125
 SCF integral mode      SCFMode         .... Direct
   Integral package                     .... SHARK and LIBINT hybrid scheme
 Reset frequency        DirectResetFreq ....    20
 Integral Threshold     Thresh          ....  1.000e-10 Eh
 Primitive CutOff       TCut            ....  1.000e-11 Eh

Convergence Tolerance:
 Convergence Check Mode ConvCheckMode   .... Total+1el-Energy
 Convergence forced     ConvForced      .... 1
 Energy Change          TolE            ....  1.000e-06 Eh
 1-El. energy change                    ....  1.000e-03 Eh
 DIIS Error             TolErr          ....  1.000e-06


Diagonalization of the overlap matrix:
Smallest eigenvalue                        ... 1.528e-04
Time for diagonalization                   ...    0.118 sec
Threshold for overlap eigenvalues          ... 1.000e-08
Number of eigenvalues below threshold      ... 0
Time for construction of square roots      ...    0.066 sec
Total time needed                          ...    0.185 sec

Time for model grid setup =    0.874 sec

------------------------------
INITIAL GUESS: MODEL POTENTIAL
------------------------------
Loading ZORA relativistic densities                ... done
Calculating cut-offs                               ... done
Initializing the effective Hamiltonian             ... done
Setting up the integral package (SHARK)            ... done
Starting the Coulomb interaction                   ... done (   0.7 sec)
Reading the grid                                   ... done
Mapping shells                                     ... done
Starting the XC term evaluation                    ... done (   0.3 sec)
  promolecular density results
     # of electrons  =    348.016044566
     EX              =   -382.479414718
     EC              =    -12.597424011
     EX+EC           =   -395.076838729
Transforming the Hamiltonian                       ... done (   0.1 sec)
Diagonalizing the Hamiltonian                      ... done (   0.1 sec)
Back transforming the eigenvectors                 ... done (   0.0 sec)
Now organizing SCF variables                       ... done
                      ------------------
                      INITIAL GUESS DONE (   2.1 sec)
                      ------------------
-------------------
DFT GRID GENERATION
-------------------

General Integration Accuracy     IntAcc      ... 4.388
Radial Grid Type                 RadialGrid  ... OptM3 with GC (2021)
Angular Grid (max. ang.)         AngularGrid ... 4 (Lebedev-302)
Angular grid pruning method      GridPruning ... 4 (adaptive)
Weight generation scheme         WeightScheme... Becke
Basis function cutoff            BFCut       ... 1.0000e-10
Integration weight cutoff        WCut        ... 1.0000e-14
Angular grids for H and He will be reduced by one unit
Partially contracted basis set               ... off
Rotationally invariant grid construction     ... off

Total number of grid points                  ...   374254
Total number of batches                      ...     5886
Average number of points per batch           ...       63
Average number of grid points per atom       ...     5057
Time for grid setup =    3.129 sec

--------------------
COSX GRID GENERATION
--------------------

GRIDX 1
-------
General Integration Accuracy     IntAcc      ... 3.816
Radial Grid Type                 RadialGrid  ... OptM3 with GC (2021)
Angular Grid (max. ang.)         AngularGrid ... 1 (Lebedev-50)
Angular grid pruning method      GridPruning ... 4 (adaptive)
Weight generation scheme         WeightScheme... Becke
Basis function cutoff            BFCut       ... 1.0000e-10
Integration weight cutoff        WCut        ... 1.0000e-14
Angular grids for H and He will be reduced by one unit
Partially contracted basis set               ... on
Rotationally invariant grid construction     ... off

Total number of grid points                  ...    46879
Total number of batches                      ...      761
Average number of points per batch           ...       61
Average number of grid points per atom       ...      634
UseSFitting                                  ... on

GRIDX 2
-------
General Integration Accuracy     IntAcc      ... 4.020
Radial Grid Type                 RadialGrid  ... OptM3 with GC (2021)
Angular Grid (max. ang.)         AngularGrid ... 2 (Lebedev-110)
Angular grid pruning method      GridPruning ... 4 (adaptive)
Weight generation scheme         WeightScheme... Becke
Basis function cutoff            BFCut       ... 1.0000e-10
Integration weight cutoff        WCut        ... 1.0000e-14
Angular grids for H and He will be reduced by one unit
Partially contracted basis set               ... on
Rotationally invariant grid construction     ... off

Total number of grid points                  ...   101795
Total number of batches                      ...     1629
Average number of points per batch           ...       62
Average number of grid points per atom       ...     1376
UseSFitting                                  ... on

GRIDX 3
-------
General Integration Accuracy     IntAcc      ... 4.338
Radial Grid Type                 RadialGrid  ... OptM3 with GC (2021)
Angular Grid (max. ang.)         AngularGrid ... 3 (Lebedev-194)
Angular grid pruning method      GridPruning ... 4 (adaptive)
Weight generation scheme         WeightScheme... Becke
Basis function cutoff            BFCut       ... 1.0000e-10
Integration weight cutoff        WCut        ... 1.0000e-14
Angular grids for H and He will be reduced by one unit
Partially contracted basis set               ... on
Rotationally invariant grid construction     ... off

Total number of grid points                  ...   219914
Total number of batches                      ...     3475
Average number of points per batch           ...       63
Average number of grid points per atom       ...     2972
UseSFitting                                  ... on

Time for X-Grid setup             =    3.057 sec


--------------------
CPCM SOLVATION MODEL
--------------------
CPCM parameters:
  Epsilon                                         ...      37.2190
  Refrac                                          ...       1.4305
  Rsolv                                           ...       1.3000
  Surface type                                    ... GAUSSIAN VDW
  Epsilon function type                           ...         CPCM
Solvent:                                     ... DMF
SMD-CDS solvent descriptors:
  Soln                                       ...    1.4305
  Soln25                                     ...    1.4280
  Sola                                       ...    0.0000
  Solb                                       ...    0.7400
  Solg                                       ...   49.5600
  Solc                                       ...    0.0000
  Solh                                       ...    0.0000
Radii:
 Radius for C  used is    3.4960 Bohr (=   1.8500 Ang.)
 Radius for H  used is    2.2677 Bohr (=   1.2000 Ang.)
 Radius for N  used is    3.5716 Bohr (=   1.8900 Ang.)
 Radius for Ru used is    3.9117 Bohr (=   2.0700 Ang.)
Calculating surface                               ...        done! (  0.0s)
GEPOL surface points                              ...         4041
GEPOL Volume                                      ...    3995.5119
GEPOL Surface-area                                ...    2015.7475
Calculating surface distance matrix               ...        done! (  0.1s)
Performing Cholesky decomposition & store         ...        done! (  0.5s)
Overall time for CPCM initialization              ...                 0.6s
--------------
SCF ITERATIONS
--------------
ITER       Energy         Delta-E        Max-DP      RMS-DP      [F,P]     Damp
               ***  Starting incremental Fock matrix formation  ***
  0  -6406.5015009846   0.000000000000 0.47723115  0.00222150  2.0032462 0.7000
  1  -6408.0897814504  -1.588280465847 0.06345803  0.00086957  1.3716235 0.7000
  2  -6408.5620321747  -0.472250724317 0.12118732  0.00067406  0.9485609 0.7000
  3  -6408.9672232841  -0.405191109359 0.09080550  0.00048607  0.6576940 0.7000
  4  -6409.2588888710  -0.291665586888 0.06027901  0.00032787  0.4556784 0.7000
  5  -6409.4687221020  -0.209833231009 0.04151327  0.00023601  0.3152829 0.7000
  6  -6409.6213286152  -0.152606513228 0.03086383  0.00018091  0.2181051 0.7000
                               ***Turning on DIIS***
  7  -6409.7314386597  -0.110110044419 0.02367208  0.00014246  0.1510733 0.7000
  8  -6409.8105897337  -0.079151074092 0.01990247  0.00012662  0.1047217 0.7000
  9  -6409.8675187312  -0.056928997487 0.04893945  0.00034868  0.0731553 0.0000
 10  -6410.0079209239  -0.140402192662 0.00550456  0.00006728  0.0039830 0.0000
 11  -6410.0093819963  -0.001461072451 0.00223409  0.00004628  0.0020292 0.0000
 12  -6410.0100659052  -0.000683908893 0.00456677  0.00004421  0.0037015 0.0000
 13  -6410.0104555211  -0.000389615826 0.00199847  0.00003775  0.0007020 0.0000
               *** Restarting incremental Fock matrix formation ***
                                   *** Resetting DIIS ***
 14  -6410.0103845222   0.000070998814 0.00059717  0.00001609  0.0006654 0.0000
 15  -6410.0103836455   0.000000876751 0.00057183  0.00000514  0.0009899 0.0000
 16  -6410.0103908468  -0.000007201283 0.00015473  0.00000181  0.0002469 0.0000
 17  -6410.0103909833  -0.000000136521 0.00008055  0.00000148  0.0000787 0.0000
 18  -6410.0103913189  -0.000000335574 0.00003828  0.00000065  0.0000591 0.0000
                 **** Energy Check signals convergence ****

               *****************************************************
               *                     SUCCESS                       *
               *           SCF CONVERGED AFTER  19 CYCLES          *
               *****************************************************

Old exchange energy                            =   -112.322142254 Eh
New exchange energy                            =   -112.322094204 Eh
Exchange energy change after final integration =      0.000048050 Eh
Total energy after final integration           =  -6410.010343060 Eh
Final COS-X integration done in                =    74.038 sec

SMD CDS free energy correction energy :                -6.39800     Kcal/mol
Total Energy after SMD CDS correction =             -6410.020538929 Eh

----------------
TOTAL SCF ENERGY
----------------

Total Energy       :        -6410.02053893 Eh         -174425.52649 eV

Components:
Nuclear Repulsion  :         7278.74180117 Eh          198064.63382 eV
Electronic Energy  :       -13688.76234010 Eh         -372490.16031 eV
One Electron Energy:       -23207.62831295 Eh         -631511.67183 eV
Two Electron Energy:         9518.86597285 Eh          259021.51152 eV
Max COSX asymmetry :            0.00003061 Eh               0.00083 eV
CPCM Dielectric    :           -0.21243502 Eh              -5.78065 eV
SMD CDS (Gcds)     :           -0.01019587 Eh              -0.27744 eV

Virial components:
Potential Energy   :       -12974.26748304 Eh         -353047.76682 eV
Kinetic Energy     :         6564.24694411 Eh          178622.24033 eV
Virial Ratio       :            1.97650509


DFT components:
N(Alpha)           :      173.000098290007 electrons
N(Beta)            :      173.000098290007 electrons
N(Total)           :      346.000196580013 electrons
E(XC)              :     -285.586208322631 Eh       
DFET-embed. en.    :        0.000000000000 Eh       
CPCM Solvation Model Properties:
Surface-charge          :           -2.06382747
Charge-correction       :            0.01133470 Eh               0.30843 eV
Free-energy (cav+disp)  :           -0.01019587 Eh              -0.27744 eV

---------------
SCF CONVERGENCE
---------------

  Last Energy change         ...    2.0813e-07  Tolerance :   1.0000e-06
  Last MAX-Density change    ...    0.0000e+00  Tolerance :   1.0000e-05
  Last RMS-Density change    ...    0.0000e+00  Tolerance :   1.0000e-06
  Last DIIS Error            ...    9.3690e-06  Tolerance :   1.0000e-06

             **** THE GBW FILE WAS UPDATED (Ru-PRC_2_SOC-wB97XD_def2SVP.gbw) ****
             **** DENSITY Ru-PRC_2_SOC-wB97XD_def2SVP.scfp WAS UPDATED ****
             **** ENERGY FILE WAS UPDATED (Ru-PRC_2_SOC-wB97XD_def2SVP.en.tmp) ****
             **** THE GBW FILE WAS UPDATED (Ru-PRC_2_SOC-wB97XD_def2SVP.gbw) ****
             **** DENSITY Ru-PRC_2_SOC-wB97XD_def2SVP.scfp WAS UPDATED ****
----------------
ORBITAL ENERGIES
----------------

  NO   OCC          E(Eh)            E(eV) 
   0   2.0000    -829.422670    -22569.7383 
   1   2.0000    -117.541456     -3198.4656 
   2   2.0000    -105.208159     -2862.8596 
   3   2.0000    -105.208145     -2862.8592 
   4   2.0000    -105.207487     -2862.8413 
   5   2.0000     -20.971585      -570.6659 
   6   2.0000     -16.917018      -460.3355 
   7   2.0000     -16.916939      -460.3333 
   8   2.0000     -16.914086      -460.2557 
   9   2.0000     -14.504759      -394.6946 
  10   2.0000     -14.504671      -394.6922 
  11   2.0000     -14.504351      -394.6834 
  12   2.0000     -14.504323      -394.6827 
  13   2.0000     -14.504137      -394.6776 
  14   2.0000     -14.503924      -394.6718 
  15   2.0000     -10.410376      -283.2807 
  16   2.0000     -10.410214      -283.2763 
  17   2.0000     -10.408508      -283.2299 
  18   2.0000     -10.405521      -283.1486 
  19   2.0000     -10.405341      -283.1437 
  20   2.0000     -10.361277      -281.9447 
  21   2.0000     -10.361025      -281.9378 
  22   2.0000     -10.360822      -281.9323 
  23   2.0000     -10.360620      -281.9268 
  24   2.0000     -10.360577      -281.9256 
  25   2.0000     -10.359339      -281.8920 
  26   2.0000     -10.357279      -281.8359 
  27   2.0000     -10.357040      -281.8294 
  28   2.0000     -10.356895      -281.8255 
  29   2.0000     -10.356722      -281.8207 
  30   2.0000     -10.356604      -281.8175 
  31   2.0000     -10.356547      -281.8160 
  32   2.0000     -10.334386      -281.2129 
  33   2.0000     -10.334201      -281.2079 
  34   2.0000     -10.333971      -281.2016 
  35   2.0000     -10.333844      -281.1982 
  36   2.0000     -10.333840      -281.1981 
  37   2.0000     -10.333692      -281.1941 
  38   2.0000     -10.330681      -281.1121 
  39   2.0000     -10.330590      -281.1097 
  40   2.0000     -10.330457      -281.1060 
  41   2.0000     -10.330246      -281.1003 
  42   2.0000     -10.330193      -281.0988 
  43   2.0000     -10.330146      -281.0976 
  44   2.0000     -10.329323      -281.0752 
  45   2.0000     -10.319570      -280.8098 
  46   2.0000     -10.319289      -280.8021 
  47   2.0000     -10.319119      -280.7975 
  48   2.0000     -10.319053      -280.7957 
  49   2.0000     -10.318956      -280.7931 
  50   2.0000     -10.318367      -280.7770 
  51   2.0000     -10.318118      -280.7703 
  52   2.0000     -10.318068      -280.7689 
  53   2.0000     -10.317896      -280.7642 
  54   2.0000     -10.317652      -280.7576 
  55   2.0000     -10.317603      -280.7562 
  56   2.0000     -10.316471      -280.7255 
  57   2.0000     -10.290047      -280.0064 
  58   2.0000     -10.286882      -279.9203 
  59   2.0000      -3.055112       -83.1338 
  60   2.0000      -1.914534       -52.0971 
  61   2.0000      -1.914070       -52.0845 
  62   2.0000      -1.905117       -51.8409 
  63   2.0000      -1.120180       -30.4817 
  64   2.0000      -1.113128       -30.2897 
  65   2.0000      -1.113036       -30.2873 
  66   2.0000      -1.088271       -29.6134 
  67   2.0000      -1.087856       -29.6021 
  68   2.0000      -1.087470       -29.5916 
  69   2.0000      -0.989080       -26.9142 
  70   2.0000      -0.987053       -26.8591 
  71   2.0000      -0.986842       -26.8533 
  72   2.0000      -0.963190       -26.2097 
  73   2.0000      -0.944037       -25.6886 
  74   2.0000      -0.943697       -25.6793 
  75   2.0000      -0.942702       -25.6522 
  76   2.0000      -0.940934       -25.6041 
  77   2.0000      -0.940597       -25.5950 
  78   2.0000      -0.912537       -24.8314 
  79   2.0000      -0.882401       -24.0114 
  80   2.0000      -0.882007       -24.0006 
  81   2.0000      -0.880347       -23.9555 
  82   2.0000      -0.879863       -23.9423 
  83   2.0000      -0.879380       -23.9291 
  84   2.0000      -0.868549       -23.6344 
  85   2.0000      -0.804995       -21.9050 
  86   2.0000      -0.789307       -21.4781 
  87   2.0000      -0.788019       -21.4431 
  88   2.0000      -0.787907       -21.4400 
  89   2.0000      -0.777892       -21.1675 
  90   2.0000      -0.777192       -21.1485 
  91   2.0000      -0.775549       -21.1038 
  92   2.0000      -0.771848       -21.0030 
  93   2.0000      -0.771494       -20.9934 
  94   2.0000      -0.770028       -20.9535 
  95   2.0000      -0.736097       -20.0302 
  96   2.0000      -0.735049       -20.0017 
  97   2.0000      -0.734211       -19.9789 
  98   2.0000      -0.692665       -18.8484 
  99   2.0000      -0.681893       -18.5553 
 100   2.0000      -0.681642       -18.5484 
 101   2.0000      -0.680046       -18.5050 
 102   2.0000      -0.669945       -18.2301 
 103   2.0000      -0.669069       -18.2063 
 104   2.0000      -0.649228       -17.6664 
 105   2.0000      -0.646667       -17.5967 
 106   2.0000      -0.646340       -17.5878 
 107   2.0000      -0.644467       -17.5368 
 108   2.0000      -0.612978       -16.6800 
 109   2.0000      -0.611326       -16.6350 
 110   2.0000      -0.610611       -16.6156 
 111   2.0000      -0.606461       -16.5027 
 112   2.0000      -0.605722       -16.4825 
 113   2.0000      -0.601956       -16.3801 
 114   2.0000      -0.597133       -16.2488 
 115   2.0000      -0.596735       -16.2380 
 116   2.0000      -0.594425       -16.1751 
 117   2.0000      -0.584304       -15.8997 
 118   2.0000      -0.582541       -15.8517 
 119   2.0000      -0.570168       -15.5151 
 120   2.0000      -0.566904       -15.4262 
 121   2.0000      -0.563304       -15.3283 
 122   2.0000      -0.555171       -15.1070 
 123   2.0000      -0.554542       -15.0898 
 124   2.0000      -0.550020       -14.9668 
 125   2.0000      -0.549851       -14.9622 
 126   2.0000      -0.546214       -14.8632 
 127   2.0000      -0.543526       -14.7901 
 128   2.0000      -0.543127       -14.7792 
 129   2.0000      -0.540514       -14.7081 
 130   2.0000      -0.534359       -14.5406 
 131   2.0000      -0.532919       -14.5015 
 132   2.0000      -0.529664       -14.4129 
 133   2.0000      -0.529102       -14.3976 
 134   2.0000      -0.525907       -14.3107 
 135   2.0000      -0.525596       -14.3022 
 136   2.0000      -0.523090       -14.2340 
 137   2.0000      -0.518944       -14.1212 
 138   2.0000      -0.516724       -14.0608 
 139   2.0000      -0.511686       -13.9237 
 140   2.0000      -0.500375       -13.6159 
 141   2.0000      -0.489031       -13.3072 
 142   2.0000      -0.485132       -13.2011 
 143   2.0000      -0.479249       -13.0410 
 144   2.0000      -0.475892       -12.9497 
 145   2.0000      -0.474077       -12.9003 
 146   2.0000      -0.473372       -12.8811 
 147   2.0000      -0.472597       -12.8600 
 148   2.0000      -0.470424       -12.8009 
 149   2.0000      -0.462985       -12.5985 
 150   2.0000      -0.454991       -12.3809 
 151   2.0000      -0.452051       -12.3009 
 152   2.0000      -0.449714       -12.2373 
 153   2.0000      -0.448026       -12.1914 
 154   2.0000      -0.430907       -11.7256 
 155   2.0000      -0.427131       -11.6228 
 156   2.0000      -0.422530       -11.4976 
 157   2.0000      -0.421171       -11.4606 
 158   2.0000      -0.420878       -11.4527 
 159   2.0000      -0.420009       -11.4290 
 160   2.0000      -0.415481       -11.3058 
 161   2.0000      -0.413681       -11.2568 
 162   2.0000      -0.410427       -11.1683 
 163   2.0000      -0.373299       -10.1580 
 164   2.0000      -0.353025        -9.6063 
 165   2.0000      -0.351843        -9.5741 
 166   2.0000      -0.343869        -9.3571 
 167   2.0000      -0.342510        -9.3202 
 168   2.0000      -0.340043        -9.2530 
 169   2.0000      -0.328426        -8.9369 
 170   2.0000      -0.296875        -8.0784 
 171   2.0000      -0.295878        -8.0513 
 172   2.0000      -0.295645        -8.0449 
 173   0.0000      -0.020995        -0.5713 
 174   0.0000      -0.015566        -0.4236 
 175   0.0000      -0.014277        -0.3885 
 176   0.0000      -0.012457        -0.3390 
 177   0.0000      -0.009591        -0.2610 
 178   0.0000      -0.009368        -0.2549 
 179   0.0000       0.029870         0.8128 
 180   0.0000       0.042305         1.1512 
 181   0.0000       0.045266         1.2317 
 182   0.0000       0.061023         1.6605 
 183   0.0000       0.071865         1.9556 
 184   0.0000       0.072788         1.9807 
 185   0.0000       0.094504         2.5716 
 186   0.0000       0.107148         2.9157 
 187   0.0000       0.107952         2.9375 
 188   0.0000       0.123751         3.3674 
 189   0.0000       0.128059         3.4847 
 190   0.0000       0.131705         3.5839 
 191   0.0000       0.140237         3.8161 
 192   0.0000       0.143405         3.9022 
 193   0.0000       0.147914         4.0249 
 194   0.0000       0.149924         4.0796 
 195   0.0000       0.157175         4.2770 
 196   0.0000       0.159340         4.3359 
 197   0.0000       0.161861         4.4045 
 198   0.0000       0.172391         4.6910 
 199   0.0000       0.173706         4.7268 
 200   0.0000       0.180412         4.9093 
 201   0.0000       0.184836         5.0297 
 202   0.0000       0.187161         5.0929 
 203   0.0000       0.191703         5.2165 
 204   0.0000       0.194052         5.2804 
 205   0.0000       0.197578         5.3764 
 206   0.0000       0.198928         5.4131 
 207   0.0000       0.201562         5.4848 
 208   0.0000       0.202361         5.5065 
 209   0.0000       0.205771         5.5993 
 210   0.0000       0.209151         5.6913 
 211   0.0000       0.212151         5.7729 
 212   0.0000       0.214338         5.8324 
 213   0.0000       0.218432         5.9438 
 214   0.0000       0.219664         5.9774 
 215   0.0000       0.223997         6.0953 
 216   0.0000       0.232862         6.3365 
 217   0.0000       0.239888         6.5277 
 218   0.0000       0.246888         6.7182 
 219   0.0000       0.250291         6.8108 
 220   0.0000       0.252147         6.8613 
 221   0.0000       0.257299         7.0015 
 222   0.0000       0.259466         7.0604 
 223   0.0000       0.261931         7.1275 
 224   0.0000       0.270416         7.3584 
 225   0.0000       0.282043         7.6748 
 226   0.0000       0.282881         7.6976 
 227   0.0000       0.285741         7.7754 
 228   0.0000       0.290056         7.8928 
 229   0.0000       0.303075         8.2471 
 230   0.0000       0.306194         8.3320 
 231   0.0000       0.308962         8.4073 
 232   0.0000       0.309595         8.4245 
 233   0.0000       0.311768         8.4836 
 234   0.0000       0.312750         8.5104 
 235   0.0000       0.315872         8.5953 
 236   0.0000       0.317669         8.6442 
 237   0.0000       0.321922         8.7600 
 238   0.0000       0.329915         8.9774 
 239   0.0000       0.333906         9.0860 
 240   0.0000       0.335395         9.1266 
 241   0.0000       0.338918         9.2224 
 242   0.0000       0.343938         9.3590 
 243   0.0000       0.349402         9.5077 
 244   0.0000       0.351099         9.5539 
 245   0.0000       0.357745         9.7347 
 246   0.0000       0.360963         9.8223 
 247   0.0000       0.362115         9.8537 
 248   0.0000       0.362432         9.8623 
 249   0.0000       0.366006         9.9595 
 250   0.0000       0.366870         9.9830 
 251   0.0000       0.368514        10.0278 
 252   0.0000       0.370165        10.0727 
 253   0.0000       0.373260        10.1569 
 254   0.0000       0.379382        10.3235 
 255   0.0000       0.382729        10.4146 
 256   0.0000       0.384475        10.4621 
 257   0.0000       0.388542        10.5728 
 258   0.0000       0.393522        10.7083 
 259   0.0000       0.395761        10.7692 
 260   0.0000       0.403859        10.9896 
 261   0.0000       0.408778        11.1234 
 262   0.0000       0.410579        11.1724 
 263   0.0000       0.417378        11.3574 
 264   0.0000       0.418429        11.3860 
 265   0.0000       0.419993        11.4286 
 266   0.0000       0.422773        11.5042 
 267   0.0000       0.425792        11.5864 
 268   0.0000       0.435164        11.8414 
 269   0.0000       0.437652        11.9091 
 270   0.0000       0.440064        11.9747 
 271   0.0000       0.443828        12.0772 
 272   0.0000       0.449122        12.2212 
 273   0.0000       0.451736        12.2924 
 274   0.0000       0.463696        12.6178 
 275   0.0000       0.466169        12.6851 
 276   0.0000       0.472732        12.8637 
 277   0.0000       0.474937        12.9237 
 278   0.0000       0.482214        13.1217 
 279   0.0000       0.490435        13.3454 
 280   0.0000       0.495370        13.4797 
 281   0.0000       0.497987        13.5509 
 282   0.0000       0.501927        13.6581 
 283   0.0000       0.504626        13.7316 
 284   0.0000       0.505575        13.7574 
 285   0.0000       0.510414        13.8891 
 286   0.0000       0.512165        13.9367 
 287   0.0000       0.513196        13.9648 
 288   0.0000       0.517780        14.0895 
 289   0.0000       0.520726        14.1697 
 290   0.0000       0.527393        14.3511 
 291   0.0000       0.531718        14.4688 
 292   0.0000       0.532561        14.4917 
 293   0.0000       0.534992        14.5579 
 294   0.0000       0.539545        14.6818 
 295   0.0000       0.540946        14.7199 
 296   0.0000       0.543568        14.7912 
 297   0.0000       0.547324        14.8935 
 298   0.0000       0.549826        14.9615 
 299   0.0000       0.551278        15.0010 
 300   0.0000       0.552042        15.0218 
 301   0.0000       0.554876        15.0989 
 302   0.0000       0.557298        15.1648 
 303   0.0000       0.558430        15.1956 
 304   0.0000       0.562374        15.3030 
 305   0.0000       0.563887        15.3441 
 306   0.0000       0.566762        15.4224 
 307   0.0000       0.572562        15.5802 
 308   0.0000       0.573884        15.6162 
 309   0.0000       0.576394        15.6845 
 310   0.0000       0.580881        15.8066 
 311   0.0000       0.583767        15.8851 
 312   0.0000       0.592089        16.1116 
 313   0.0000       0.606445        16.5022 
 314   0.0000       0.606934        16.5155 
 315   0.0000       0.607667        16.5355 
 316   0.0000       0.611572        16.6417 
 317   0.0000       0.616848        16.7853 
 318   0.0000       0.621007        16.8985 
 319   0.0000       0.623585        16.9686 
 320   0.0000       0.624926        17.0051 
 321   0.0000       0.626295        17.0423 
 322   0.0000       0.628814        17.1109 
 323   0.0000       0.630206        17.1488 
 324   0.0000       0.633412        17.2360 
 325   0.0000       0.634687        17.2707 
 326   0.0000       0.640263        17.4224 
 327   0.0000       0.641215        17.4483 
 328   0.0000       0.642536        17.4843 
 329   0.0000       0.650416        17.6987 
 330   0.0000       0.653240        17.7756 
 331   0.0000       0.659743        17.9525 
 332   0.0000       0.663368        18.0512 
 333   0.0000       0.669481        18.2175 
 334   0.0000       0.672608        18.3026 
 335   0.0000       0.674680        18.3590 
[...]
   0  57   29656.7    337.2     -8.94768 (  0.01681, -0.03900) (  0.01204, -0.02793) ( -0.01151,  0.02670)
   0  58   29745.6    336.2     -2.22632 ( -0.00304, -0.00137) ( -0.02107, -0.00947) ( -0.01181, -0.00531)
   0  59   29810.3    335.5      2.43630 (  0.00117, -0.00245) ( -0.01125,  0.02360) (  0.00464, -0.00974)
   0  60   29828.5    335.3      8.91877 ( -0.03920,  0.05448) ( -0.00246,  0.00342) (  0.01284, -0.01784)
   0  61   29910.5    334.3     -2.33575 (  0.20366, -0.21895) ( -0.06431,  0.06914) ( -0.07607,  0.08178)
   0  62   30024.7    333.1      8.64277 (  0.05386, -0.07184) (  0.16420, -0.21902) ( -0.01943,  0.02591)
   0  63   30080.2    332.4     -1.29225 ( -0.02445, -0.00416) (  0.04098,  0.00698) (  0.03198,  0.00545)
   0  64   30108.5    332.1      4.67725 (  0.03526,  0.02953) ( -0.00110, -0.00092) ( -0.01819, -0.01523)
   0  65   30135.6    331.8     15.72329 (  0.02417, -0.02941) (  0.10337, -0.12580) ( -0.00038,  0.00046)
   0  66   30922.2    323.4      0.13080 ( -0.00294, -0.00248) (  0.00586,  0.00493) ( -0.00036, -0.00030)
   0  67   30930.4    323.3     -0.24711 (  0.00225, -0.00207) ( -0.00295,  0.00272) ( -0.00720,  0.00662)
   0  68   30933.6    323.3     -0.04319 (  0.00179, -0.00253) ( -0.00598,  0.00847) (  0.00122, -0.00173)
   0  69   30991.5    322.7      1.31201 (  0.01333, -0.01135) ( -0.03307,  0.02815) ( -0.00944,  0.00803)
   0  70   31371.3    318.8     -0.01584 ( -0.00055, -0.00047) ( -0.00696, -0.00597) (  0.00487,  0.00417)
   0  71   31391.7    318.6      1.42748 (  0.04948, -0.01771) (  0.02358, -0.00844) ( -0.00974,  0.00349)
   0  72   31394.0    318.5      2.48273 ( -0.02444, -0.04743) (  0.01400,  0.02716) (  0.00589,  0.01143)
   0  73   31624.9    316.2      6.19668 ( -0.14655, -0.09191) ( -0.11602, -0.07276) (  0.04452,  0.02792)
   0  74   31634.8    316.1    -11.48256 ( -0.28136, -0.04299) (  0.13521,  0.02066) (  0.10056,  0.01537)
   0  75   31673.3    315.7      5.03824 ( -0.14888,  0.01110) ( -0.00037,  0.00003) (  0.01505, -0.00112)
   0  76   31715.2    315.3     -6.85137 ( -0.02506, -0.07864) ( -0.05691, -0.17854) (  0.00677,  0.02125)
   0  77   31734.0    315.1      1.29536 (  0.02675, -0.02121) ( -0.03696,  0.02931) ( -0.01133,  0.00898)
   0  78   31774.4    314.7     -3.18278 (  0.01310, -0.31937) (  0.00899, -0.21908) ( -0.00188,  0.04590)
   0  79   31818.2    314.3      5.50948 (  0.25113, -0.10567) (  0.17597, -0.07405) ( -0.10729,  0.04515)
   0  80   31869.4    313.8      2.74441 ( -0.19253,  0.02917) (  0.35270, -0.05344) (  0.11576, -0.01754)
   0  81   31903.9    313.4     -6.14096 ( -0.13192,  0.18124) (  0.14228, -0.19548) (  0.03494, -0.04800)
   0  82   31936.3    313.1     -7.41624 (  0.10900, -0.07719) ( -0.17630,  0.12485) ( -0.04089,  0.02896)
   0  83   31973.5    312.8      0.41476 (  0.06343, -0.15363) (  0.13155, -0.31862) ( -0.00922,  0.02233)
   0  84   32064.0    311.9      1.48158 (  0.06538, -0.01255) ( -0.02989,  0.00574) (  0.00209, -0.00040)
   0  85   32079.4    311.7      0.60418 (  0.02455,  0.03857) (  0.00193,  0.00303) ( -0.00935, -0.01469)
   0  86   32097.1    311.6     -4.15295 (  0.14283, -0.02247) ( -0.14580,  0.02294) ( -0.07566,  0.01190)
   0  87   32411.1    308.5     -2.43435 (  0.07363,  0.03119) ( -0.00526, -0.00223) (  0.06853,  0.02903)
   0  88   32421.5    308.4      0.28471 ( -0.01075,  0.00247) ( -0.03309,  0.00761) ( -0.12276,  0.02824)
   0  89   32432.0    308.3      0.10573 (  0.00404,  0.01997) ( -0.00076, -0.00377) ( -0.00358, -0.01768)
   0  90   32640.7    306.4     -6.65955 ( -0.04881,  0.07943) (  0.02368, -0.03853) ( -0.15629,  0.25432)
   0  91   32665.6    306.1      0.98994 (  0.02244,  0.02745) ( -0.03782, -0.04627) (  0.07132,  0.08724)
   0  92   32667.6    306.1     -0.06349 (  0.04069,  0.00926) ( -0.00364, -0.00083) (  0.05462,  0.01242)
   0  93   32739.7    305.4    -42.78340 ( -0.16127, -0.14504) (  0.01499,  0.01349) ( -0.43893, -0.39476)
   0  94   32816.9    304.7      0.95781 ( -0.01008, -0.00906) ( -0.02174, -0.01954) ( -0.01666, -0.01498)
   0  95   32819.4    304.7     -0.14155 ( -0.00406, -0.00641) (  0.00111,  0.00175) (  0.00442,  0.00697)
   0  96   32829.4    304.6     -2.41932 (  0.05835, -0.01867) ( -0.00514,  0.00165) (  0.20131, -0.06441)
   0  97   32923.2    303.7    -21.16046 (  0.00355, -0.04256) (  0.00095, -0.01134) ( -0.00801,  0.09589)
   0  98   33017.0    302.9     -9.83242 (  0.01523,  0.00766) (  0.01532,  0.00771) ( -0.10495, -0.05279)
   0  99   33057.3    302.5     -0.17683 (  0.01843,  0.01284) (  0.00214,  0.00149) (  0.02011,  0.01401)
   0 100   33114.2    302.0     -4.17015 ( -0.02334,  0.03097) (  0.00234, -0.00311) ( -0.02071,  0.02748)
   0 101   33157.5    301.6    -42.76926 (  0.04248, -0.01348) (  0.09463, -0.03004) ( -0.14557,  0.04621)
   0 102   33225.5    301.0     -5.37126 ( -0.02131, -0.00907) (  0.03275,  0.01393) ( -0.02555, -0.01087)
   0 103   33256.9    300.7      0.15499 (  0.04038,  0.00296) (  0.01144,  0.00084) (  0.01751,  0.00128)
   0 104   33312.1    300.2      0.03849 ( -0.00631, -0.00732) (  0.00676,  0.00784) ( -0.00605, -0.00702)
   0 105   33317.1    300.1     -0.53265 ( -0.01273, -0.03138) ( -0.01538, -0.03791) (  0.00348,  0.00857)
   0 106   33484.2    298.6     -8.66503 (  0.04508, -0.01382) ( -0.01922,  0.00589) ( -0.02187,  0.00670)
   0 107   33513.6    298.4     -4.53013 (  0.00662,  0.01556) (  0.01105,  0.02597) ( -0.00595, -0.01397)
   0 108   33539.3    298.2     -0.09829 (  0.00046,  0.00283) ( -0.00003, -0.00021) ( -0.00406, -0.02480)
   0 109   33562.3    298.0     -3.50164 (  0.00161, -0.00166) ( -0.01704,  0.01755) (  0.02400, -0.02472)
   0 110   33654.4    297.1      2.24871 ( -0.00420, -0.00045) (  0.01178,  0.00127) ( -0.03492, -0.00377)
   0 111   33661.2    297.1     -1.71923 (  0.00177,  0.02412) (  0.00028,  0.00378) ( -0.00107, -0.01460)
   0 112   33674.8    297.0     -2.36297 ( -0.00729,  0.00509) ( -0.01098,  0.00767) (  0.02680, -0.01872)
   0 113   33699.8    296.7      0.22296 (  0.00216, -0.00191) ( -0.00921,  0.00817) ( -0.01163,  0.01032)
   0 114   33706.7    296.7     -0.06276 ( -0.00097,  0.00614) (  0.00027, -0.00171) ( -0.00037,  0.00236)
   0 115   33711.0    296.6     -1.32186 (  0.00064,  0.00067) (  0.01207,  0.01265) ( -0.01620, -0.01698)
   0 116   33821.4    295.7      0.06504 (  0.00736, -0.00504) (  0.00024, -0.00016) (  0.00129, -0.00089)
   0 117   33909.8    294.9      5.72802 ( -0.00174,  0.00940) (  0.00342, -0.01843) ( -0.01030,  0.05550)
   0 118   33916.7    294.8     -0.26935 (  0.01059,  0.00319) (  0.01852,  0.00557) ( -0.04169, -0.01255)
   0 119   33974.0    294.3      5.36776 ( -0.02095,  0.05251) (  0.00446, -0.01119) ( -0.00855,  0.02142)
   0 120   34219.6    292.2     -0.25997 ( -0.02334, -0.03298) ( -0.01855, -0.02620) (  0.01396,  0.01973)
   0 121   34428.7    290.5     -4.76057 (  0.06034,  0.03319) (  0.06675,  0.03671) ( -0.01688, -0.00928)
   0 122   34442.0    290.3     -5.55983 (  0.01220,  0.02337) ( -0.04449, -0.08520) ( -0.02127, -0.04074)
   0 123   34496.2    289.9      1.76966 ( -0.00478, -0.01387) ( -0.02358, -0.06840) ( -0.00917, -0.02661)
   0 124   34511.0    289.8      2.19762 (  0.01028,  0.01114) (  0.02075,  0.02249) (  0.02233,  0.02421)
   0 125   34703.8    288.2      2.93293 (  0.00256, -0.00186) ( -0.02442,  0.01775) ( -0.02702,  0.01964)
   0 126   34734.9    287.9      0.87163 (  0.01149,  0.01846) (  0.00955,  0.01534) (  0.00739,  0.01188)
   0 127   34786.9    287.5      0.51140 ( -0.00646,  0.00531) (  0.08124, -0.06681) (  0.03574, -0.02939)
   0 128   34805.9    287.3      6.07570 ( -0.06800, -0.06196) ( -0.00506, -0.00461) (  0.02375,  0.02164)
   0 129   34925.6    286.3     -5.93630 ( -0.04142,  0.03800) ( -0.06214,  0.05702) (  0.00744, -0.00683)
   0 130   34928.8    286.3     -0.60705 (  0.02251,  0.02962) ( -0.01795, -0.02361) ( -0.01355, -0.01782)
   0 131   34942.6    286.2     -4.65866 ( -0.02398, -0.04954) (  0.02118,  0.04377) (  0.01099,  0.02271)
   0 132   35163.1    284.4      0.78472 (  0.00457, -0.00053) ( -0.02051,  0.00237) ( -0.02826,  0.00327)
   0 133   36444.6    274.4     -6.07142 ( -0.01205,  0.05328) (  0.01109, -0.04903) (  0.01109, -0.04905)
   0 134   36682.6    272.6      6.24192 ( -0.00827,  0.00975) (  0.01958, -0.02309) (  0.05157, -0.06080)
   0 135   36786.4    271.8     -5.80779 (  0.03533,  0.09984) ( -0.01038, -0.02933) ( -0.03610, -0.10201)
   0 136   36796.6    271.8     -3.71479 (  0.05146,  0.03307) ( -0.05235, -0.03364) ( -0.06200, -0.03985)
   0 137   36806.4    271.7      0.01166 (  0.00585,  0.00562) ( -0.00207, -0.00199) (  0.00166,  0.00160)
   0 138   36849.9    271.4     -0.82552 (  0.05707,  0.06743) ( -0.00017, -0.00020) ( -0.06076, -0.07179)
   0 139   36911.0    270.9    -71.45404 ( -0.17413,  0.25848) (  0.12722, -0.18884) (  0.20102, -0.29840)
   0 140   37135.8    269.3     -4.00196 (  0.03204, -0.02384) ( -0.08074,  0.06006) ( -0.05176,  0.03850)
   0 141   37354.9    267.7     -0.56545 (  0.00957,  0.02549) ( -0.00615, -0.01639) ( -0.00621, -0.01654)
   0 142   37355.5    267.7      0.16764 ( -0.00661, -0.00524) (  0.00387,  0.00307) (  0.01234,  0.00978)
   0 143   37356.4    267.7     -0.11877 ( -0.00206,  0.00227) ( -0.00752,  0.00827) (  0.00043, -0.00047)
   0 144   37430.7    267.2      5.21130 (  0.03353,  0.03335) ( -0.00773, -0.00769) (  0.01039,  0.01033)
   0 145   37583.5    266.1     -0.06414 ( -0.00197,  0.00479) ( -0.00290,  0.00703) (  0.00054, -0.00131)
   0 146   37584.1    266.1      0.04991 (  0.00642, -0.00329) (  0.00485, -0.00249) (  0.00404, -0.00207)
   0 147   37584.9    266.1     -0.12645 ( -0.00138,  0.00169) (  0.00728, -0.00888) (  0.00019, -0.00024)
   0 148   38025.3    263.0     -1.17328 ( -0.00403,  0.03574) ( -0.00068,  0.00608) (  0.00217, -0.01927)
   0 149   38659.9    258.7     -0.03205 (  0.00334,  0.00196) ( -0.00630, -0.00369) (  0.00066,  0.00039)
   0 150   38660.2    258.7     -0.07386 (  0.00912, -0.00741) ( -0.00530,  0.00431) ( -0.01203,  0.00978)
   0 151   38660.6    258.7     -0.01114 ( -0.00122,  0.00218) (  0.00275, -0.00491) (  0.00247, -0.00440)
   0 152   39191.5    255.2     -8.45943 ( -0.06766, -0.10568) ( -0.14905, -0.23278) (  0.04230,  0.06607)
   0 153   39235.4    254.9     -3.48094 (  0.25999, -0.03504) ( -0.07221,  0.00973) (  0.23213, -0.03128)
   0 154   39776.0    251.4     -7.05826 ( -0.07670, -0.05960) (  0.06136,  0.04768) (  0.09127,  0.07093)
   0 155   39779.1    251.4      0.00004 (  0.00044, -0.00086) (  0.00020, -0.00040) ( -0.00008,  0.00016)
   0 156   39781.5    251.4     -0.13876 ( -0.00525,  0.01231) ( -0.00090,  0.00212) (  0.00394, -0.00925)
   0 157   39853.1    250.9    -300.98345 (  0.43296,  0.44108) ( -0.33129, -0.33750) ( -0.49979, -0.50916)
   0 158   39879.4    250.8    -23.05450 ( -0.14996, -0.06391) (  0.11428,  0.04870) (  0.15904,  0.06778)
   0 159   39881.3    250.7     -0.46381 ( -0.02289,  0.00309) (  0.01852, -0.00250) (  0.02587, -0.00349)
   0 160   39884.1    250.7    -62.61918 (  0.24007,  0.13254) ( -0.18280, -0.10092) ( -0.26593, -0.14681)
   0 161   40258.3    248.4     -9.21924 (  0.07104,  0.07895) ( -0.03517, -0.03909) ( -0.01442, -0.01602)
   0 162   40269.8    248.3     -0.28797 ( -0.01297,  0.00819) (  0.00932, -0.00588) (  0.00979, -0.00618)
   0 163   40271.4    248.3     -3.63215 (  0.03843,  0.04523) ( -0.02681, -0.03155) ( -0.02965, -0.03489)
   0 164   40437.3    247.3     -4.74770 ( -0.01673,  0.08743) (  0.00869, -0.04541) ( -0.00053,  0.00276)
   0 165   40442.8    247.3      0.03632 (  0.00719, -0.00120) (  0.00424, -0.00071) ( -0.01224,  0.00205)
   0 166   40445.2    247.2      0.26137 (  0.00112,  0.00068) ( -0.00457, -0.00276) (  0.01390,  0.00838)
   0 167   40550.8    246.6    -11.08893 (  0.22207,  0.08822) ( -0.08478, -0.03368) (  0.05397,  0.02144)
   0 168   40589.5    246.4     -1.30213 ( -0.03534,  0.00181) ( -0.02168,  0.00111) (  0.02926, -0.00150)
   0 169   40596.5    246.3     -2.55296 (  0.04462,  0.03196) (  0.02333,  0.01671) ( -0.03846, -0.02754)
   0 170   40685.8    245.8    -302.64520 (  0.18441, -0.36698) (  0.24790, -0.49332) ( -0.03908,  0.07777)
   0 171   40711.7    245.6    -453.55966 ( -0.25126,  0.19672) ( -0.60989,  0.47749) (  0.17609, -0.13786)
   0 172   40717.1    245.6    -78.48530 (  0.01630,  0.12909) (  0.04038,  0.31984) ( -0.00885, -0.07010)
   0 173   40724.1    245.6    -30.81763 (  0.06474,  0.05148) (  0.15736,  0.12512) ( -0.02585, -0.02055)
   0 174   40834.2    244.9    -118.44282 (  0.21007, -0.32018) (  0.18514, -0.28219) (  0.01770, -0.02697)
   0 175   40849.2    244.8     58.63521 (  0.07689, -0.15617) ( -0.13870,  0.28172) (  0.11707, -0.23779)
   0 176   40915.2    244.4     -9.24039 ( -0.04857,  0.02971) ( -0.08970,  0.05488) (  0.02243, -0.01373)
   0 177   41020.6    243.8    276.04049 ( -0.43614, -0.19664) (  0.18901,  0.08522) ( -0.35663, -0.16079)
   0 178   41409.3    241.5     -2.77028 (  0.03350,  0.01969) ( -0.05532, -0.03251) (  0.00797,  0.00468)
   0 179   41430.0    241.4     -1.08598 (  0.00112,  0.00048) ( -0.03870, -0.01666) (  0.01619,  0.00697)
   0 180   41434.5    241.3     -1.10419 (  0.09654, -0.00550) (  0.00601, -0.00034) (  0.02480, -0.00141)
   0 181   41506.6    240.9     -4.67932 ( -0.01508,  0.00239) (  0.10174, -0.01614) (  0.03390, -0.00538)
   0 182   41518.3    240.9     -5.50341 (  0.00722,  0.06856) (  0.00784,  0.07446) ( -0.00381, -0.03622)
   0 183   41618.0    240.3     -0.04609 ( -0.00778,  0.00307) ( -0.00350,  0.00138) ( -0.00132,  0.00052)
   0 184   41959.4    238.3    1000.47933 (  0.39037,  0.14183) ( -0.05154, -0.01873) (  0.66412,  0.24130)
   0 185   42311.2    236.3     93.94768 (  0.20982, -0.15283) ( -0.21725,  0.15825) ( -0.47153,  0.34346)
   0 186   42622.4    234.6     45.43603 ( -0.03555,  0.01771) (  0.25072, -0.12491) ( -0.28144,  0.14021)
   0 187   42722.9    234.1      2.48322 (  0.16157,  0.36787) ( -0.00204, -0.00465) (  0.02437,  0.05549)
   0 188   43724.6    228.7    -138.23274 (  0.27302,  0.26974) ( -0.14261, -0.14090) (  0.14852,  0.14674)
   0 189   44115.1    226.7     86.55908 ( -0.08841, -0.07389) (  0.00250,  0.00209) ( -0.02044, -0.01708)
   0 190   44447.6    225.0    -303.65614 ( -0.05232, -0.09045) ( -0.21473, -0.37117) (  0.03375,  0.05833)
   0 191   44596.2    224.2    -15.27063 (  0.24568, -0.10648) (  0.34132, -0.14793) ( -0.14776,  0.06404)
   0 192   45029.5    222.1     27.68243 ( -0.00542,  0.19363) (  0.00155, -0.05533) ( -0.00390,  0.13950)
   0 193   45521.8    219.7     -5.90061 ( -0.12145,  0.04884) ( -0.04850,  0.01951) (  0.03813, -0.01533)
   0 194   45663.2    219.0     37.31909 ( -0.23769, -0.08219) (  0.10693,  0.03697) ( -0.09067, -0.03135)
   0 195   45986.9    217.5     59.78419 (  0.04877,  0.01499) ( -0.04915, -0.01510) ( -0.31551, -0.09695)
   0 196   46101.3    216.9      3.61857 (  0.00955, -0.02922) (  0.00723, -0.02212) ( -0.01496,  0.04577)
   0 197   47726.2    209.5     52.19529 ( -0.26893, -0.02178) (  0.24618,  0.01994) (  0.56528,  0.04578)
   0 198   48586.2    205.8      4.24557 (  0.11364,  0.25051) (  0.10538,  0.23231) (  0.03116,  0.06868)
   0 199   48800.0    204.9    -32.13189 ( -0.02914, -0.17310) ( -0.09667, -0.57431) (  0.02930,  0.17407)
   0 200   48869.7    204.6    154.93897 (  0.48002, -0.23875) ( -0.16550,  0.08231) (  0.27360, -0.13608)

*The complex numbers are printed as (real, imaginary)

The electronic components of the SOC ground state dipole moment in a.u. are:
           X                     Y                     Z
( 18.78536,  0.00000) ( -0.93132,  0.00000) (  9.76853,  0.00000)

Total run time:     2346.668 sec

           *** ORCA-CIS/TD-DFT FINISHED WITHOUT ERROR ***

Maximum memory used throughout the entire CIS-calculation: 6137.1 MB

---------------------------
SOC CIS/TD-DFT TOTAL ENERGY
---------------------------

    E(SCF)        =  -6410.020538929 Eh
    E(SOC CIS)    =      0.093049411 Eh (SOC Root  1)
    ----------------------------- ---------
    E(tot)        =  -6409.927489518 Eh



-------------------------------------------------------------------------------
                          DFT DISPERSION CORRECTION                            
                                                                               
                              DFTD3 V3.1  Rev 1                                
                              USING zero damping                               
-------------------------------------------------------------------------------
The omegaB97X-D3 functional is recognized. Fit by Chai et al.
Active option DFTDOPT                   ...         3   

molecular C6(AA) [au] = 79026.847684 


            DFT-D V3
 parameters
 s6 scaling factor         :     1.0000 
 rs6 scaling factor        :     1.2810 
 s8 scaling factor         :     1.0000 
 rs8 scaling factor        :     1.0940 
 Damping factor alpha6     :    14.0000 
 Damping factor alpha8     :    16.0000 
 ad hoc parameters k1-k3   :    16.0000     1.3333    -4.0000 

 Edisp/kcal,au: -33.643201816250  -0.053613849062 
 E6   /kcal   : -17.140103311 
 E8   /kcal   : -16.503098505 
 % E8         :  49.053293428 

-------------------------   ----------------
Dispersion correction           -0.053613849
-------------------------   ----------------


-------------------------   --------------------
FINAL SINGLE POINT ENERGY     -6409.981103367535
-------------------------   --------------------


                            ***************************************
                            *     ORCA property calculations      *
                            ***************************************

                                    ---------------------
                                    Active property flags
                                    ---------------------
   (+) Dipole Moment


------------------------------------------------------------------------------
                       ORCA ELECTRIC PROPERTIES CALCULATION
------------------------------------------------------------------------------

Dipole Moment Calculation                       ... on
Quadrupole Moment Calculation                   ... off
Polarizability Calculation                      ... off
GBWName                                         ... Ru-PRC_2_SOC-wB97XD_def2SVP.gbw
Electron density                                ... Ru-PRC_2_SOC-wB97XD_def2SVP.scfp
The origin for moment calculation is the CENTER OF MASS  = ( 0.050960, -0.003412  0.026580)

-------------
DIPOLE MOMENT
-------------
                                X             Y             Z
Electronic contribution:     18.77725      -0.93093       9.76434
Nuclear contribution   :    -17.73418       1.18748      -9.24976
                        -----------------------------------------
Total Dipole Moment    :      1.04306       0.25654       0.51458
                        -----------------------------------------
Magnitude (a.u.)       :      1.19105
Magnitude (Debye)      :      3.02740



--------------------
Rotational spectrum 
--------------------
 
Rotational constants in cm-1:     0.002985     0.002540     0.002093 
Rotational constants in MHz :    89.475331    76.157164    62.734591 

 Dipole components along the rotational axes: 
x,y,z [a.u.] :    -1.037328     0.249489     0.529428 
x,y,z [Debye]:    -2.636679     0.634150     1.345699 

 

Timings for individual modules:

Sum of individual times         ...     2941.807 sec (=  49.030 min)
GTO integral calculation        ...       32.447 sec (=   0.541 min)   1.1 %
Relativistic integrals          ...       18.523 sec (=   0.309 min)   0.6 %
SCF iterations                  ...      543.730 sec (=   9.062 min)  18.5 %
CIS module                      ...     2347.107 sec (=  39.118 min)  79.8 %
                             ****ORCA TERMINATED NORMALLY****
TOTAL RUN TIME: 0 days 0 hours 49 minutes 3 seconds 35 msec
