
                                 *****************
                                 * O   R   C   A *
                                 *****************

                                            #,                                       
                                            ###                                      
                                            ####                                     
                                            #####                                    
                                            ######                                   
                                           ########,                                 
                                     ,,################,,,,,                         
                               ,,#################################,,                 
                          ,,##########################################,,             
                       ,#########################################, ''#####,          
                    ,#############################################,,   '####,        
                  ,##################################################,,,,####,       
                ,###########''''           ''''###############################       
              ,#####''   ,,,,##########,,,,          '''####'''          '####       
            ,##' ,,,,###########################,,,                        '##       
           ' ,,###''''                  '''############,,,                           
         ,,##''                                '''############,,,,        ,,,,,,###''
      ,#''                                            '''#######################'''  
     '                                                          ''''####''''         
             ,#######,   #######,   ,#######,      ##                                
            ,#'     '#,  ##    ##  ,#'     '#,    #''#        ######   ,####,        
            ##       ##  ##   ,#'  ##            #'  '#       #        #'  '#        
            ##       ##  #######   ##           ,######,      #####,   #    #        
            '#,     ,#'  ##    ##  '#,     ,#' ,#      #,         ##   #,  ,#        
             '#######'   ##     ##  '#######'  #'      '#     #####' # '####'        



                  #######################################################
                  #                        -***-                        #
                  #          Department of theory and spectroscopy      #
                  #    Directorship and core code : Frank Neese         #
                  #        Max Planck Institute fuer Kohlenforschung    #
                  #                Kaiser Wilhelm Platz 1               #
                  #                 D-45470 Muelheim/Ruhr               #
                  #                      Germany                        #
                  #                                                     #
                  #                  All rights reserved                #
                  #                        -***-                        #
                  #######################################################


                         Program Version 5.0.4 -  RELEASE  -


 With contributions from (in alphabetic order):
   Daniel Aravena         : Magnetic Suceptibility
   Michael Atanasov       : Ab Initio Ligand Field Theory (pilot matlab implementation)
   Alexander A. Auer      : GIAO ZORA, VPT2 properties, NMR spectrum
   Ute Becker             : Parallelization
   Giovanni Bistoni       : ED, misc. LED, open-shell LED, HFLD
   Martin Brehm           : Molecular dynamics
   Dmytro Bykov           : SCF Hessian
   Vijay G. Chilkuri      : MRCI spin determinant printing, contributions to CSF-ICE
   Dipayan Datta          : RHF DLPNO-CCSD density
   Achintya Kumar Dutta   : EOM-CC, STEOM-CC
   Dmitry Ganyushin       : Spin-Orbit,Spin-Spin,Magnetic field MRCI
   Miquel Garcia          : C-PCM and meta-GGA Hessian, CC/C-PCM, Gaussian charge scheme
   Yang Guo               : DLPNO-NEVPT2, F12-NEVPT2, CIM, IAO-localization
   Andreas Hansen         : Spin unrestricted coupled pair/coupled cluster methods
   Benjamin Helmich-Paris : MC-RPA, TRAH-SCF, COSX integrals
   Lee Huntington         : MR-EOM, pCC
   Robert Izsak           : Overlap fitted RIJCOSX, COSX-SCS-MP3, EOM
   Marcus Kettner         : VPT2
   Christian Kollmar      : KDIIS, OOCD, Brueckner-CCSD(T), CCSD density, CASPT2, CASPT2-K
   Simone Kossmann        : Meta GGA functionals, TD-DFT gradient, OOMP2, MP2 Hessian
   Martin Krupicka        : Initial AUTO-CI
   Lucas Lang             : DCDCAS
   Marvin Lechner         : AUTO-CI (C++ implementation), FIC-MRCC
   Dagmar Lenk            : GEPOL surface, SMD
   Dimitrios Liakos       : Extrapolation schemes; Compound Job, initial MDCI parallelization
   Dimitrios Manganas     : Further ROCIS development; embedding schemes
   Dimitrios Pantazis     : SARC Basis sets
   Anastasios Papadopoulos: AUTO-CI, single reference methods and gradients
   Taras Petrenko         : DFT Hessian,TD-DFT gradient, ASA, ECA, R-Raman, ABS, FL, XAS/XES, NRVS
   Peter Pinski           : DLPNO-MP2, DLPNO-MP2 Gradient
   Christoph Reimann      : Effective Core Potentials
   Marius Retegan         : Local ZFS, SOC
   Christoph Riplinger    : Optimizer, TS searches, QM/MM, DLPNO-CCSD(T), (RO)-DLPNO pert. Triples
   Tobias Risthaus        : Range-separated hybrids, TD-DFT gradient, RPA, STAB
   Michael Roemelt        : Original ROCIS implementation
   Masaaki Saitow         : Open-shell DLPNO-CCSD energy and density
   Barbara Sandhoefer     : DKH picture change effects
   Avijit Sen             : IP-ROCIS
   Kantharuban Sivalingam : CASSCF convergence, NEVPT2, FIC-MRCI
   Bernardo de Souza      : ESD, SOC TD-DFT
   Georgi Stoychev        : AutoAux, RI-MP2 NMR, DLPNO-MP2 response
   Willem Van den Heuvel  : Paramagnetic NMR
   Boris Wezisla          : Elementary symmetry handling
   Frank Wennmohs         : Technical directorship


 We gratefully acknowledge several colleagues who have allowed us to
 interface, adapt or use parts of their codes:
   Stefan Grimme, W. Hujo, H. Kruse, P. Pracht,  : VdW corrections, initial TS optimization,
                  C. Bannwarth, S. Ehlert          DFT functionals, gCP, sTDA/sTD-DF
   Ed Valeev, F. Pavosevic, A. Kumar             : LibInt (2-el integral package), F12 methods
   Garnet Chan, S. Sharma, J. Yang, R. Olivares  : DMRG
   Ulf Ekstrom                                   : XCFun DFT Library
   Mihaly Kallay                                 : mrcc  (arbitrary order and MRCC methods)
   Jiri Pittner, Ondrej Demel                    : Mk-CCSD
   Frank Weinhold                                : gennbo (NPA and NBO analysis)
   Christopher J. Cramer and Donald G. Truhlar   : smd solvation model
   Lars Goerigk                                  : TD-DFT with DH, B97 family of functionals
   V. Asgeirsson, H. Jonsson                     : NEB implementation
   FAccTs GmbH                                   : IRC, NEB, NEB-TS, DLPNO-Multilevel, CI-OPT
                                                   MM, QMMM, 2- and 3-layer-ONIOM, Crystal-QMMM,
                                                   LR-CPCM, SF, NACMEs, symmetry and pop. for TD-DFT,
                                                   nearIR, NL-DFT gradient (VV10), updates on ESD,
                                                   ML-optimized integration grids
   S Lehtola, MJT Oliveira, MAL Marques          : LibXC Library
   Liviu Ungur et al                             : ANISO software


 Your calculation uses the libint2 library for the computation of 2-el integrals
 For citations please refer to: http://libint.valeyev.net

 Your ORCA version has been built with support for libXC version: 5.1.0
 For citations please refer to: https://tddft.org/programs/libxc/

 This ORCA versions uses:
   CBLAS   interface :  Fast vector & matrix operations
   LAPACKE interface :  Fast linear algebra routines
   SCALAPACK package :  Parallel linear algebra routines
   Shared memory     :  Shared parallel matrices
   BLAS/LAPACK       :  OpenBLAS 0.3.15  USE64BITINT DYNAMIC_ARCH NO_AFFINITY Zen SINGLE_THREADED
        Core in use  :  Zen
   Copyright (c) 2011-2014, The OpenBLAS Project


Your calculation utilizes the SMD solvation module
Please cite in your paper:
A.V. Marenich, C.J. Cramer, D.G. Truhlar J. Phys. Chem. B, 113, (2009), 6378 

================================================================================

cite the ECPs for Ru [Def2-ECP] as follows:
Ce-Yb(ecp-28): M. Dolg, H. Stoll, H.Preuss, J. Chem. Phys., 1989, 90, 1730-1734.
Y-Cd(ecp-28), Hf-Hg(ecp-46): D. Andrae,U. Haeussermann, M. Dolg, H. Stoll, H. Preuss, Theor. Chim. Acta, 1990, 77, 123-141.
In-Sb(ecp-28), Tl-Bi(ecp-46): B. Metz, H. Stoll, M. Dolg, J. Chem. Phys., 2000, 113, 2563-2569.
Te-Xe(ecp-28), Po-Rn(ecp-46): K. A. Peterson, D. Figgen, E. Goll, H. Stoll, M. Dolg, J. Chem. Phys., 2003, 119, 11113-11123.
Rb(ecp-28), Cs(ecp-46): T. Leininger, A. Nicklass, W. Kuechle, H. Stoll, M. Dolg, A. Bergner, Chem. Phys. Lett., 1996, 255, 274-280.
Sr(ecp-28), Ba(ecp-46): M. Kaupp, P. V. Schleyer, H. Stoll and H. Preuss, J. Chem. Phys., 1991, 94, 1360-1366.
La(ecp-46): M. Dolg, H. Stoll, A. Savin, H. Preuss, Theor. Chim. Acta, 1989, 75, 173-194.
Lu(ecp-28): X. Cao, M. Dolg, J. Chem. Phys., 2001, 115, 7348-7355.

ECP parameters for Ru [Def2-ECP] have been obtained from:
TURBOMOLE (7.0.2)

----- Orbital basis set information -----
Your calculation utilizes the basis: def2-SVP
   F. Weigend and R. Ahlrichs, Phys. Chem. Chem. Phys. 7, 3297 (2005).

----- AuxJ basis set information -----
Your calculation utilizes the auxiliary basis: def2/J
   F. Weigend, Phys. Chem. Chem. Phys. 8, 1057 (2006).

----- AuxC basis set information -----
Your calculation utilizes the auxiliary basis: def2-SVP/C
  H-La, Hf-Rn : A. Hellweg, C. Hattig, S. Hofener and W. Klopper, Theor. Chem. Acc. 117, 587 (2007).
        Ce-Lu : J. Chmela and M. E. Harding, Mol. Phys. (2018).

================================================================================
                                        WARNINGS
                       Please study these warnings very carefully!
================================================================================

INFO   : Checking CIS options ...
  ===> : (D) CORRECTION FOUND - SETTING MODE=3
  ===> : JK MODE FOUND - ACTIVATING RI-MP2 CODE
  ===> : MP2 AND CIS FOUND - CHECKING
WARNING: CIS(D) and MP2 runs must have the same orbital window
  ===> : adjusting orbital windows

WARNING: No MP2 level density has been requested!
         To caclulate MP2 level properties use
         %mp2 Density relaxed end
         or
         %mp2 Density unrelaxed end
         Otherwise for double-hybrid DFT only the energy is correct!

WARNING: The frozen-core approximation is turned on by default for 
         the MP2 part of double-hybrid DFT.

WARNING: CIS/ROCIS methods need fully converged wavefunctions
  ===> : Setting SCFConvForced true
         You can overwrite this default with %scf ConvForced false 


INFO   : the flag for use of the SHARK integral package has been found!

================================================================================
                                       INPUT FILE
================================================================================
NAME = Ru-PRC_2_B2PLYP_def2SVP.inp
|  1> %maxcore 6000
|  2> %pal
|  3>  nprocs 8
|  4> end
|  5> ! RI-B2PLYP def2-SVP def2/J def2-SVP/C RIJCOSX CPCM TIGHTSCF
|  6> 
|  7> %TDDFT 
|  8>     DCORR      4
|  9>     NROOTS    40
| 10>     TDA       FALSE
| 11> END
| 12> 
| 13> %CPCM
| 14>     SMD		TRUE
| 15>     SMDsolvent	"DMF"
| 16> END
| 17> 
| 18> * xyz 2 1
| 19> C                  -1.67762600   -2.06917600    0.26663300
| 20> C                  -2.41976900   -0.35506600   -1.10525600
| 21> C                  -3.64054900   -1.01297700   -1.38146000
| 22> C                  -3.83977500   -2.26012400   -0.78603600
| 23> C                  -2.86017500   -2.81414300    0.05348900
| 24> C                  -0.64603500   -2.57041500    1.10931800
| 25> C                   1.44308500   -2.22864100    2.05449600
| 26> C                   1.37107100   -3.45610900    2.72594600
| 27> C                   0.25377000   -4.25800100    2.57879900
| 28> C                  -0.79899200   -3.82255400    1.74914100
| 29> H                  -2.20348800    0.61917600   -1.54629500
| 30> H                  -4.75670000   -2.82685600   -0.95693900
| 31> H                   2.31664400   -1.58092100    2.16092700
| 32> H                   2.20519900   -3.76067100    3.35881600
| 33> H                   0.17640700   -5.21804400    3.09326600
| 34> C                  -0.67339700    2.70837900   -0.05312000
| 35> C                   0.28364100    2.10199200   -2.07678600
| 36> C                  -0.06962300    3.33263900   -2.64593400
| 37> C                  -0.74150200    4.27374300   -1.88863600
| 38> C                  -1.06092100    3.97552600   -0.54795300
| 39> C                  -0.98229700    2.33684100    1.28747800
| 40> C                  -0.86513200    0.71554500    2.94084800
| 41> C                  -1.52816500    1.55169900    3.84900700
| 42> C                  -1.93001300    2.81414400    3.45518900
| 43> C                  -1.66090300    3.24064700    2.13824800
| 44> H                   0.81430900    1.34564600   -2.66004600
| 45> H                   0.19565500    3.52842800   -3.68531800
| 46> H                  -1.02608800    5.23987000   -2.31036100
| 47> H                  -0.54138600   -0.28590700    3.23440100
| 48> H                  -1.72009400    1.18704000    4.85864000
| 49> H                  -2.45085000    3.48178900    4.14451300
| 50> C                   3.23412000    0.19880600   -0.22862400
| 51> C                   2.68339500    1.39646100    1.67891500
| 52> C                   4.02351900    1.75439600    1.87621500
| 53> C                   4.99043500    1.31827600    0.98984900
| 54> C                   4.60716500    0.51520700   -0.10406100
| 55> C                   2.77992400   -0.61361700   -1.30748600
| 56> C                   0.98382300   -1.63523300   -2.36009000
| 57> C                   1.82485800   -2.15757100   -3.35148700
| 58> C                   3.18147600   -1.89533500   -3.31194000
| 59> C                   3.69765300   -1.10225100   -2.26646500
| 60> H                   1.90544100    1.73094300    2.36951600
| 61> H                   6.04067700    1.58549700    1.12343700
| 62> H                  -0.09133400   -1.82982300   -2.37615000
| 63> H                   3.85546200   -2.29168000   -4.07407900
| 64> N                   2.29071800    0.63576100    0.65528400
| 65> N                   0.46103900   -1.78766600    1.26545600
| 66> N                  -0.59313200    1.09239100    1.69009600
| 67> N                  -1.47103100   -0.85747600   -0.31699100
| 68> N                  -0.01102000    1.78870800   -0.81332900
| 69> N                   1.44226000   -0.87808700   -1.36144800
| 70> Ru                  0.36080900   -0.00017200    0.18929900
| 71> C                   5.51802000    0.00759000   -1.08472300
| 72> C                   5.08178500   -0.76686700   -2.12215900
| 73> C                  -2.00317200   -4.56431000    1.51982500
| 74> C                  -2.99008000   -4.08297000    0.70778800
| 75> C                  -2.03492300    4.52072000    1.61867400
| 76> C                  -1.75019700    4.87194600    0.32958100
| 77> H                   5.78528600   -1.14774300   -2.86536700
| 78> H                   6.57648500    0.25619200   -0.98346900
| 79> H                  -3.90321000   -4.65855900    0.54243700
| 80> H                  -2.11475400   -5.53118100    2.01503300
| 81> H                  -2.04404200    5.84954600   -0.05820200
| 82> H                  -2.55962000    5.21304700    2.28029100
| 83> H                   4.28251500    2.37741300    2.73292400
| 84> H                   1.39050900   -2.76799900   -4.14390000
| 85> C                  -4.63221300   -0.36219000   -2.26657700
| 86> C                  -5.80902100   -0.94423200   -2.56200300
| 87> H                  -6.10834500   -1.92100400   -2.17663300
| 88> H                  -6.52586300   -0.44316400   -3.21675100
| 89> C                  -4.28434800    0.98137800   -2.82737800
| 90> H                  -4.09873700    1.72172300   -2.03314000
| 91> H                  -3.36834600    0.94781100   -3.43802900
| 92> H                  -5.09264700    1.36665600   -3.45976600
| 93> *
| 94> 
| 95>                          ****END OF INPUT****
================================================================================

                       ****************************
                       * Single Point Calculation *
                       ****************************

---------------------------------
CARTESIAN COORDINATES (ANGSTROEM)
---------------------------------
  C     -1.677626   -2.069176    0.266633
  C     -2.419769   -0.355066   -1.105256
  C     -3.640549   -1.012977   -1.381460
  C     -3.839775   -2.260124   -0.786036
  C     -2.860175   -2.814143    0.053489
  C     -0.646035   -2.570415    1.109318
  C      1.443085   -2.228641    2.054496
  C      1.371071   -3.456109    2.725946
  C      0.253770   -4.258001    2.578799
  C     -0.798992   -3.822554    1.749141
  H     -2.203488    0.619176   -1.546295
  H     -4.756700   -2.826856   -0.956939
  H      2.316644   -1.580921    2.160927
  H      2.205199   -3.760671    3.358816
  H      0.176407   -5.218044    3.093266
  C     -0.673397    2.708379   -0.053120
  C      0.283641    2.101992   -2.076786
  C     -0.069623    3.332639   -2.645934
  C     -0.741502    4.273743   -1.888636
  C     -1.060921    3.975526   -0.547953
  C     -0.982297    2.336841    1.287478
  C     -0.865132    0.715545    2.940848
  C     -1.528165    1.551699    3.849007
  C     -1.930013    2.814144    3.455189
  C     -1.660903    3.240647    2.138248
  H      0.814309    1.345646   -2.660046
  H      0.195655    3.528428   -3.685318
  H     -1.026088    5.239870   -2.310361
  H     -0.541386   -0.285907    3.234401
  H     -1.720094    1.187040    4.858640
  H     -2.450850    3.481789    4.144513
  C      3.234120    0.198806   -0.228624
  C      2.683395    1.396461    1.678915
  C      4.023519    1.754396    1.876215
  C      4.990435    1.318276    0.989849
  C      4.607165    0.515207   -0.104061
  C      2.779924   -0.613617   -1.307486
  C      0.983823   -1.635233   -2.360090
  C      1.824858   -2.157571   -3.351487
  C      3.181476   -1.895335   -3.311940
  C      3.697653   -1.102251   -2.266465
  H      1.905441    1.730943    2.369516
  H      6.040677    1.585497    1.123437
  H     -0.091334   -1.829823   -2.376150
  H      3.855462   -2.291680   -4.074079
  N      2.290718    0.635761    0.655284
  N      0.461039   -1.787666    1.265456
  N     -0.593132    1.092391    1.690096
  N     -1.471031   -0.857476   -0.316991
  N     -0.011020    1.788708   -0.813329
  N      1.442260   -0.878087   -1.361448
  Ru     0.360809   -0.000172    0.189299
  C      5.518020    0.007590   -1.084723
  C      5.081785   -0.766867   -2.122159
  C     -2.003172   -4.564310    1.519825
  C     -2.990080   -4.082970    0.707788
  C     -2.034923    4.520720    1.618674
  C     -1.750197    4.871946    0.329581
  H      5.785286   -1.147743   -2.865367
  H      6.576485    0.256192   -0.983469
  H     -3.903210   -4.658559    0.542437
  H     -2.114754   -5.531181    2.015033
  H     -2.044042    5.849546   -0.058202
  H     -2.559620    5.213047    2.280291
  H      4.282515    2.377413    2.732924
  H      1.390509   -2.767999   -4.143900
  C     -4.632213   -0.362190   -2.266577
  C     -5.809021   -0.944232   -2.562003
  H     -6.108345   -1.921004   -2.176633
  H     -6.525863   -0.443164   -3.216751
  C     -4.284348    0.981378   -2.827378
  H     -4.098737    1.721723   -2.033140
  H     -3.368346    0.947811   -3.438029
  H     -5.092647    1.366656   -3.459766

----------------------------
CARTESIAN COORDINATES (A.U.)
----------------------------
  NO LB      ZA    FRAG     MASS         X           Y           Z
   0 C     6.0000    0    12.011   -3.170254   -3.910176    0.503863
   1 C     6.0000    0    12.011   -4.572701   -0.670977   -2.088631
   2 C     6.0000    0    12.011   -6.879641   -1.914249   -2.610581
   3 C     6.0000    0    12.011   -7.256123   -4.271015   -1.485393
   4 C     6.0000    0    12.011   -5.404947   -5.317960    0.101080
   5 C     6.0000    0    12.011   -1.220829   -4.857380    2.096307
   6 C     6.0000    0    12.011    2.727035   -4.211521    3.882435
   7 C     6.0000    0    12.011    2.590949   -6.531099    5.151291
   8 C     6.0000    0    12.011    0.479556   -8.046456    4.873224
   9 C     6.0000    0    12.011   -1.509876   -7.223580    3.305397
  10 H     1.0000    0     1.008   -4.163989    1.170073   -2.922074
  11 H     1.0000    0     1.008   -8.988860   -5.341984   -1.808353
  12 H     1.0000    0     1.008    4.377823   -2.987508    4.083560
  13 H     1.0000    0     1.008    4.167222   -7.106638    6.347242
  14 H     1.0000    0     1.008    0.333361   -9.860674    5.845426
  15 C     6.0000    0    12.011   -1.272536    5.118095   -0.100382
  16 C     6.0000    0    12.011    0.536004    3.972189   -3.924557
  17 C     6.0000    0    12.011   -0.131568    6.297775   -5.000091
  18 C     6.0000    0    12.011   -1.401236    8.076204   -3.569005
  19 C     6.0000    0    12.011   -2.004850    7.512655   -1.035481
  20 C     6.0000    0    12.011   -1.856272    4.415990    2.432981
  21 C     6.0000    0    12.011   -1.634863    1.352184    5.557397
  22 C     6.0000    0    12.011   -2.887813    2.932286    7.273569
  23 C     6.0000    0    12.011   -3.647196    5.317961    6.529361
  24 C     6.0000    0    12.011   -3.138652    6.123935    4.040703
  25 H     1.0000    0     1.008    1.538821    2.542902   -5.026758
  26 H     1.0000    0     1.008    0.369734    6.667763   -6.964242
  27 H     1.0000    0     1.008   -1.939025    9.901919   -4.365950
  28 H     1.0000    0     1.008   -1.023071   -0.540286    6.112132
  29 H     1.0000    0     1.008   -3.250507    2.243181    9.181499
  30 H     1.0000    0     1.008   -4.631435    6.579628    7.831995
  31 C     6.0000    0    12.011    6.111601    0.375689   -0.432037
  32 C     6.0000    0    12.011    5.070882    2.638929    3.172690
  33 C     6.0000    0    12.011    7.603349    3.315328    3.545533
  34 C     6.0000    0    12.011    9.430555    2.491181    1.870544
  35 C     6.0000    0    12.011    8.706280    0.973600   -0.196647
  36 C     6.0000    0    12.011    5.253295   -1.159568   -2.470790
  37 C     6.0000    0    12.011    1.859156   -3.090143   -4.459924
  38 C     6.0000    0    12.011    3.448482   -4.077218   -6.333393
  39 C     6.0000    0    12.011    6.012118   -3.581664   -6.258660
  40 C     6.0000    0    12.011    6.987552   -2.082953   -4.282998
  41 H     1.0000    0     1.008    3.600762    3.271008    4.477736
  42 H     1.0000    0     1.008   11.415225    2.996155    2.122988
  43 H     1.0000    0     1.008   -0.172596   -3.457864   -4.490273
  44 H     1.0000    0     1.008    7.285767   -4.330648   -7.698894
  45 N     7.0000    0    14.007    4.328830    1.201414    1.238307
  46 N     7.0000    0    14.007    0.871237   -3.378199    2.391365
  47 N     7.0000    0    14.007   -1.120857    2.064320    3.193819
  48 N     7.0000    0    14.007   -2.779846   -1.620395   -0.599026
  49 N     7.0000    0    14.007   -0.020825    3.380168   -1.536969
  50 N     7.0000    0    14.007    2.725476   -1.659344   -2.572764
  51 Ru   16.0000*   0   101.070    0.681830   -0.000325    0.357723
  52 C     6.0000    0    12.011   10.427547    0.014343   -2.049829
  53 C     6.0000    0    12.011    9.603182   -1.449169   -4.010299
  54 C     6.0000    0    12.011   -3.785446   -8.625296    2.872053
  55 C     6.0000    0    12.011   -5.650432   -7.715695    1.337525
  56 C     6.0000    0    12.011   -3.845447    8.542923    3.058851
  57 C     6.0000    0    12.011   -3.307393    9.206644    0.622818
  58 H     1.0000    0     1.008   10.932606   -2.168920   -5.414759
  59 H     1.0000    0     1.008   12.427756    0.484133   -1.858487
  60 H     1.0000    0     1.008   -7.375998   -8.803401    1.025057
  61 H     1.0000    0     1.008   -3.996306  -10.452417    3.807861
  62 H     1.0000    0     1.008   -3.862680   11.054040   -0.109986
  63 H     1.0000    0     1.008   -4.836981    9.851231    4.309125
  64 H     1.0000    0     1.008    8.092781    4.492659    5.164478
  65 H     1.0000    0     1.008    2.627681   -5.230760   -7.830836
  66 C     6.0000    0    12.011   -8.753614   -0.684440   -4.283210
  67 C     6.0000    0    12.011  -10.977459   -1.784340   -4.841484
  68 H     1.0000    0     1.008  -11.543099   -3.630171   -4.113240
  69 H     1.0000    0     1.008  -12.332094   -0.837459   -6.078778
  70 C     6.0000    0    12.011   -8.096244    1.854536   -5.342970
  71 H     1.0000    0     1.008   -7.745490    3.253585   -3.842078
  72 H     1.0000    0     1.008   -6.365251    1.791103   -6.496933
  73 H     1.0000    0     1.008   -9.623708    2.582606   -6.538010
* core charge reduced due to ECP

--------------------------------
INTERNAL COORDINATES (ANGSTROEM)
--------------------------------
 C      0   0   0     0.000000000000     0.00000000     0.00000000
 C      1   0   0     2.317548004437     0.00000000     0.00000000
 C      2   1   0     1.414015325920    92.74923135     0.00000000
 C      3   2   1     1.396279477204   117.09525529   359.68700230
 C      4   3   2     1.404049656524   120.52216088     0.37070214
 C      1   2   3     1.423214156628   147.46841042   180.42545254
 C      6   1   2     2.318316909562   147.42111914     0.22254936
 C      7   6   1     1.400967098015    91.14104304   179.29531090
 C      8   7   6     1.383128534835   119.90094751     0.00000000
 C      9   8   7     1.409345349947   119.13821751     0.04560973
 H      2   1   3     1.091073024617   146.74413636   180.11454438
 H      4   3   2     1.091395643595   121.12511811   180.20541753
 H      7   6   1     1.092691211021   147.94286947   359.56987729
 H      8   7   6     1.090436595648   118.91790085   180.00377034
 H      9   8   7     1.091945003060   121.12064140   180.03926934
 C     11   2   1     2.989233885817   121.57535374   324.54139976
 C     16  11   2     2.319235004645    65.96018789   122.17786492
 C     17  16  11     1.401148435466    91.18899035   108.54203246
 C     18  17  16     1.382243969153   119.86817180     0.14656506
 C     19  18  17     1.410103819986   119.14489980     0.00000000
 C     16  11   2     1.425013225570   100.18027309   333.22062438
 C     21  16  11     2.318611807470   147.37356457    61.21816906
 C     22  21  16     1.401256236413    91.20254301   179.56550587
 C     23  22  21     1.382151153186   119.86391739     0.20180824
 C     24  23  22     1.410198070694   119.13400795   359.88005914
 H     17  16  11     1.092639018862   147.90642084   288.84450987
 H     18  17  16     1.090424160252   118.91782950   180.04970834
 H     19  18  17     1.091898597467   121.16534808   179.93582890
 H     22  21  16     1.092653167583   147.93415818   359.76816512
 H     23  22  21     1.090491504786   118.93289632   179.99870390
 H     24  23  22     1.091873895452   121.15214790   179.80693376
 C     13   7   6     3.117554231558   119.93495636   327.07108084
 C     32  13   7     2.318702344237    66.07138084   120.23191323
 C     33  32  13     1.401062842845    91.18175524   111.01793635
 C     34  33  32     1.382306728412   119.87898734     0.04977530
 C     35  34  33     1.410125809905   119.14278032     0.00000000
 C     32  13   7     1.424874854992    99.26767106   330.84687821
 C     37  32  13     2.318976764539   147.32624103    59.91574273
 C     38  37  32     1.401087031229    91.17441985   179.62327924
 C     39  38  37     1.382296669615   119.87783635     0.00000000
 C     40  39  38     1.410120172897   119.15412597     0.05306379
 H     33  32  13     1.092712393835   147.90211257   291.19476451
 H     35  34  33     1.091907081738   121.14069137   179.95426840
 H     38  37  32     1.092742314706   147.90627168   359.86371029
 H     40  39  38     1.091880186899   121.12927986   180.02209112
 N     33  32  13     1.334421275494    31.17101195   291.20247980
 N      7   6   1     1.334712485272    31.20216978   359.53419286
 N     22  21  16     1.334307862984    31.17176112   359.76329543
 N      2   1   3     1.331871356764    30.96755589   180.24414953
 N     17  16  11     1.334651849894    31.15797407   288.86671057
 N     38  37  32     1.334436357587    31.15928528   359.91162590
 Ru    50  17  16     2.084133240948   128.13401245   177.90444282
 C     36  35  34     1.431443260475   124.08785856   179.93670254
 C     53  36  35     1.366147164170   121.20413643   179.97850746
 C     10   9   8     1.432772579230   124.19912520   180.01282239
 C     55  10   9     1.365679202973   121.33578621   179.68625935
 C     25  24  23     1.431235475806   124.03142118   179.67403996
 C     57  25  24     1.366085414899   121.20136101   180.31379213
 H     54  53  36     1.091942450700   120.58868667   179.92047068
 H     53  36  35     1.091972290466   118.19896844   359.94482096
 H     56  55  10     1.091993611255   120.56663442   180.04901736
 H     55  10   9     1.092026115360   118.14281070   359.77331374
 H     58  57  25     1.091980906021   120.61002049   179.72411827
 H     57  25  24     1.091952687357   118.20812751     0.10755995
 H     34  33  32     1.090495034829   118.93131910   179.98518643
 H     39  38  37     1.090504360172   118.93169566   179.96350910
 C      3   2   1     1.479984226927   119.38718594   179.50112316
 C     67   3   2     1.345706684276   121.80680993   179.99659367
 H     68  67   3     1.091873817737   123.31020211   359.92803829
 H     68  67   3     1.092532167532   120.46270813   179.89613270
 C     67   3   2     1.496891041609   117.58282303   359.82843386
 H     71  67   3     1.101533550551   111.85699268   300.77911853
 H     71  67   3     1.101399587477   111.93983888    59.91883403
 H     71  67   3     1.096221233707   111.11440123   180.38224488

---------------------------
INTERNAL COORDINATES (A.U.)
---------------------------
 C      0   0   0     0.000000000000     0.00000000     0.00000000
 C      1   0   0     4.379531030602     0.00000000     0.00000000
 C      2   1   0     2.672101715156    92.74923135     0.00000000
 C      3   2   1     2.638585818330   117.09525529   359.68700230
 C      4   3   2     2.653269329257   120.52216088     0.37070214
 C      1   2   3     2.689484985947   147.46841042   180.42545254
 C      6   1   2     4.380984050710   147.42111914     0.22254936
 C      7   6   1     2.647444137882    91.14104304   179.29531090
 C      8   7   6     2.613734138849   119.90094751     0.00000000
 C      9   8   7     2.663276739515   119.13821751     0.04560973
 H      2   1   3     2.061829208634   146.74413636   180.11454438
 H      4   3   2     2.062438870149   121.12511811   180.20541753
 H      7   6   1     2.064887137772   147.94286947   359.56987729
 H      8   7   6     2.060626532180   118.91790085   180.00377034
 H      9   8   7     2.063477009087   121.12064140   180.03926934
 C     11   2   1     5.648833394431   121.57535374   324.54139976
 C     16  11   2     4.382718998982    65.96018789   122.17786492
 C     17  16  11     2.647786816003    91.18899035   108.54203246
 C     18  17  16     2.612062551964   119.86817180     0.14656506
 C     19  18  17     2.664710040170   119.14489980     0.00000000
 C     16  11   2     2.692884733542   100.18027309   333.22062438
 C     21  16  11     4.381541326995   147.37356457    61.21816906
 C     22  21  16     2.647990530270    91.20254301   179.56550587
 C     23  22  21     2.611887155205   119.86391739     0.20180824
 C     24  23  22     2.664888148196   119.13400795   359.88005914
 H     17  16  11     2.064788508886   147.90642084   288.84450987
 H     18  17  16     2.060603032687   118.91782950   180.04970834
 H     19  18  17     2.063389315225   121.16534808   179.93582890
 H     22  21  16     2.064815246093   147.93415818   359.76816512
 H     23  22  21     2.060730295414   118.93289632   179.99870390
 H     24  23  22     2.063342635182   121.15214790   179.80693376
 C     13   7   6     5.891323705292   119.93495636   327.07108084
 C     32  13   7     4.381712416689    66.07138084   120.23191323
 C     33  32  13     2.647625069390    91.18175524   111.01793635
 C     34  33  32     2.612181149775   119.87898734     0.04977530
 C     35  34  33     2.664751595095   119.14278032     0.00000000
 C     32  13   7     2.692623251046    99.26767106   330.84687821
 C     37  32  13     4.382230995906   147.32624103    59.91574273
 C     38  37  32     2.647670778812    91.17441985   179.62327924
 C     39  38  37     2.612162141404   119.87783635     0.00000000
 C     40  39  38     2.664740942692   119.15412597     0.05306379
 H     33  32  13     2.064927167490   147.90211257   291.19476451
 H     35  34  33     2.063405348173   121.14069137   179.95426840
 H     38  37  32     2.064983709742   147.90627168   359.86371029
 H     40  39  38     2.063354524293   121.12927986   180.02209112
 N     33  32  13     2.521690757961    31.17101195   291.20247980
 N      7   6   1     2.522241064690    31.20216978   359.53419286
 N     22  21  16     2.521476439377    31.17176112   359.76329543
 N      2   1   3     2.516872109899    30.96755589   180.24414953
 N     17  16  11     2.522126480431    31.15797407   288.86671057
 N     38  37  32     2.521719258986    31.15928528   359.91162590
 Ru    50  17  16     3.938441051994   128.13401245   177.90444282
 C     36  35  34     2.705035738544   124.08785856   179.93670254
 C     53  36  35     2.581643998915   121.20413643   179.97850746
 C     10   9   8     2.707547786936   124.19912520   180.01282239
 C     55  10   9     2.580759680411   121.33578621   179.68625935
 C     25  24  23     2.704643082425   124.03142118   179.67403996
 C     57  25  24     2.581527309704   121.20136101   180.31379213
 H     54  53  36     2.063472185826   120.58868667   179.92047068
 H     53  36  35     2.063528574811   118.19896844   359.94482096
 H     56  55  10     2.063568865264   120.56663442   180.04901736
 H     55  10   9     2.063630289121   118.14281070   359.77331374
 H     58  57  25     2.063544855851   120.61002049   179.72411827
 H     57  25  24     2.063491530305   118.20812751     0.10755995
 H     34  33  32     2.060736966227   118.93131910   179.98518643
 H     39  38  37     2.060754588572   118.93169566   179.96350910
 C      3   2   1     2.796764871416   119.38718594   179.50112316
 C     67   3   2     2.543017089868   121.80680993   179.99659367
 H     68  67   3     2.063342488322   123.31020211   359.92803829
 H     68  67   3     2.064586589135   120.46270813   179.89613270
 C     67   3   2     2.828714120962   117.58282303   359.82843386
 H     71  67   3     2.081596737868   111.85699268   300.77911853
 H     71  67   3     2.081343584345   111.93983888    59.91883403
 H     71  67   3     2.071557913895   111.11440123   180.38224488

---------------------
BASIS SET INFORMATION
---------------------
There are 4 groups of distinct atoms

 Group   1 Type C   : 7s4p1d contracted to 3s2p1d pattern {511/31/1}
 Group   2 Type H   : 4s1p contracted to 2s1p pattern {31/1}
 Group   3 Type N   : 7s4p1d contracted to 3s2p1d pattern {511/31/1}
 Group   4 Type Ru  : 7s6p5d1f contracted to 5s3p2d1f pattern {31111/411/41/1}

Atom   0C    basis set group =>   1
Atom   1C    basis set group =>   1
Atom   2C    basis set group =>   1
Atom   3C    basis set group =>   1
Atom   4C    basis set group =>   1
Atom   5C    basis set group =>   1
Atom   6C    basis set group =>   1
Atom   7C    basis set group =>   1
Atom   8C    basis set group =>   1
Atom   9C    basis set group =>   1
Atom  10H    basis set group =>   2
Atom  11H    basis set group =>   2
Atom  12H    basis set group =>   2
Atom  13H    basis set group =>   2
Atom  14H    basis set group =>   2
Atom  15C    basis set group =>   1
Atom  16C    basis set group =>   1
Atom  17C    basis set group =>   1
Atom  18C    basis set group =>   1
Atom  19C    basis set group =>   1
Atom  20C    basis set group =>   1
Atom  21C    basis set group =>   1
Atom  22C    basis set group =>   1
Atom  23C    basis set group =>   1
Atom  24C    basis set group =>   1
Atom  25H    basis set group =>   2
Atom  26H    basis set group =>   2
Atom  27H    basis set group =>   2
Atom  28H    basis set group =>   2
Atom  29H    basis set group =>   2
Atom  30H    basis set group =>   2
Atom  31C    basis set group =>   1
Atom  32C    basis set group =>   1
Atom  33C    basis set group =>   1
Atom  34C    basis set group =>   1
Atom  35C    basis set group =>   1
Atom  36C    basis set group =>   1
Atom  37C    basis set group =>   1
Atom  38C    basis set group =>   1
Atom  39C    basis set group =>   1
Atom  40C    basis set group =>   1
Atom  41H    basis set group =>   2
Atom  42H    basis set group =>   2
Atom  43H    basis set group =>   2
Atom  44H    basis set group =>   2
Atom  45N    basis set group =>   3
Atom  46N    basis set group =>   3
Atom  47N    basis set group =>   3
Atom  48N    basis set group =>   3
Atom  49N    basis set group =>   3
Atom  50N    basis set group =>   3
Atom  51Ru   basis set group =>   4
Atom  52C    basis set group =>   1
Atom  53C    basis set group =>   1
Atom  54C    basis set group =>   1
Atom  55C    basis set group =>   1
Atom  56C    basis set group =>   1
Atom  57C    basis set group =>   1
Atom  58H    basis set group =>   2
Atom  59H    basis set group =>   2
Atom  60H    basis set group =>   2
Atom  61H    basis set group =>   2
Atom  62H    basis set group =>   2
Atom  63H    basis set group =>   2
Atom  64H    basis set group =>   2
Atom  65H    basis set group =>   2
Atom  66C    basis set group =>   1
Atom  67C    basis set group =>   1
Atom  68H    basis set group =>   2
Atom  69H    basis set group =>   2
Atom  70C    basis set group =>   1
Atom  71H    basis set group =>   2
Atom  72H    basis set group =>   2
Atom  73H    basis set group =>   2
---------------------------------
AUXILIARY/J BASIS SET INFORMATION
---------------------------------
There are 4 groups of distinct atoms

 Group   1 Type C   : 12s5p4d2f1g contracted to 6s4p3d1f1g pattern {711111/2111/211/2/1}
 Group   2 Type H   : 5s2p1d contracted to 3s1p1d pattern {311/2/1}
 Group   3 Type N   : 12s5p4d2f1g contracted to 6s4p3d1f1g pattern {711111/2111/211/2/1}
 Group   4 Type Ru  : 11s5p5d3f3g contracted to 8s5p5d2f3g pattern {41111111/11111/11111/21/111}

Atom   0C    basis set group =>   1
Atom   1C    basis set group =>   1
Atom   2C    basis set group =>   1
Atom   3C    basis set group =>   1
Atom   4C    basis set group =>   1
Atom   5C    basis set group =>   1
Atom   6C    basis set group =>   1
Atom   7C    basis set group =>   1
Atom   8C    basis set group =>   1
Atom   9C    basis set group =>   1
Atom  10H    basis set group =>   2
Atom  11H    basis set group =>   2
Atom  12H    basis set group =>   2
Atom  13H    basis set group =>   2
Atom  14H    basis set group =>   2
Atom  15C    basis set group =>   1
Atom  16C    basis set group =>   1
Atom  17C    basis set group =>   1
Atom  18C    basis set group =>   1
Atom  19C    basis set group =>   1
Atom  20C    basis set group =>   1
Atom  21C    basis set group =>   1
Atom  22C    basis set group =>   1
Atom  23C    basis set group =>   1
Atom  24C    basis set group =>   1
Atom  25H    basis set group =>   2
Atom  26H    basis set group =>   2
Atom  27H    basis set group =>   2
Atom  28H    basis set group =>   2
Atom  29H    basis set group =>   2
Atom  30H    basis set group =>   2
Atom  31C    basis set group =>   1
Atom  32C    basis set group =>   1
Atom  33C    basis set group =>   1
Atom  34C    basis set group =>   1
Atom  35C    basis set group =>   1
Atom  36C    basis set group =>   1
Atom  37C    basis set group =>   1
Atom  38C    basis set group =>   1
Atom  39C    basis set group =>   1
Atom  40C    basis set group =>   1
Atom  41H    basis set group =>   2
Atom  42H    basis set group =>   2
Atom  43H    basis set group =>   2
Atom  44H    basis set group =>   2
Atom  45N    basis set group =>   3
Atom  46N    basis set group =>   3
Atom  47N    basis set group =>   3
Atom  48N    basis set group =>   3
Atom  49N    basis set group =>   3
Atom  50N    basis set group =>   3
Atom  51Ru   basis set group =>   4
Atom  52C    basis set group =>   1
Atom  53C    basis set group =>   1
Atom  54C    basis set group =>   1
Atom  55C    basis set group =>   1
Atom  56C    basis set group =>   1
Atom  57C    basis set group =>   1
Atom  58H    basis set group =>   2
Atom  59H    basis set group =>   2
Atom  60H    basis set group =>   2
Atom  61H    basis set group =>   2
Atom  62H    basis set group =>   2
Atom  63H    basis set group =>   2
Atom  64H    basis set group =>   2
Atom  65H    basis set group =>   2
Atom  66C    basis set group =>   1
Atom  67C    basis set group =>   1
Atom  68H    basis set group =>   2
Atom  69H    basis set group =>   2
Atom  70C    basis set group =>   1
Atom  71H    basis set group =>   2
Atom  72H    basis set group =>   2
Atom  73H    basis set group =>   2
---------------------------------
AUXILIARY/C BASIS SET INFORMATION
---------------------------------
There are 4 groups of distinct atoms

 Group   1 Type C   : 8s6p5d3f contracted to 6s5p4d1f pattern {311111/21111/2111/3}
 Group   2 Type H   : 4s3p2d contracted to 3s2p1d pattern {211/21/2}
 Group   3 Type N   : 8s6p5d3f contracted to 6s5p4d1f pattern {311111/21111/2111/3}
 Group   4 Type Ru  : 8s7p6d5f3g1h contracted to 8s7p6d5f3g1h pattern {11111111/1111111/111111/11111/111/1}

Atom   0C    basis set group =>   1
Atom   1C    basis set group =>   1
Atom   2C    basis set group =>   1
Atom   3C    basis set group =>   1
Atom   4C    basis set group =>   1
Atom   5C    basis set group =>   1
Atom   6C    basis set group =>   1
Atom   7C    basis set group =>   1
Atom   8C    basis set group =>   1
Atom   9C    basis set group =>   1
Atom  10H    basis set group =>   2
Atom  11H    basis set group =>   2
Atom  12H    basis set group =>   2
Atom  13H    basis set group =>   2
Atom  14H    basis set group =>   2
Atom  15C    basis set group =>   1
Atom  16C    basis set group =>   1
Atom  17C    basis set group =>   1
Atom  18C    basis set group =>   1
Atom  19C    basis set group =>   1
Atom  20C    basis set group =>   1
Atom  21C    basis set group =>   1
Atom  22C    basis set group =>   1
Atom  23C    basis set group =>   1
Atom  24C    basis set group =>   1
Atom  25H    basis set group =>   2
Atom  26H    basis set group =>   2
Atom  27H    basis set group =>   2
Atom  28H    basis set group =>   2
Atom  29H    basis set group =>   2
Atom  30H    basis set group =>   2
Atom  31C    basis set group =>   1
Atom  32C    basis set group =>   1
Atom  33C    basis set group =>   1
Atom  34C    basis set group =>   1
Atom  35C    basis set group =>   1
Atom  36C    basis set group =>   1
Atom  37C    basis set group =>   1
Atom  38C    basis set group =>   1
Atom  39C    basis set group =>   1
Atom  40C    basis set group =>   1
Atom  41H    basis set group =>   2
Atom  42H    basis set group =>   2
Atom  43H    basis set group =>   2
Atom  44H    basis set group =>   2
Atom  45N    basis set group =>   3
Atom  46N    basis set group =>   3
Atom  47N    basis set group =>   3
Atom  48N    basis set group =>   3
Atom  49N    basis set group =>   3
Atom  50N    basis set group =>   3
Atom  51Ru   basis set group =>   4
Atom  52C    basis set group =>   1
Atom  53C    basis set group =>   1
Atom  54C    basis set group =>   1
Atom  55C    basis set group =>   1
Atom  56C    basis set group =>   1
Atom  57C    basis set group =>   1
Atom  58H    basis set group =>   2
Atom  59H    basis set group =>   2
Atom  60H    basis set group =>   2
Atom  61H    basis set group =>   2
Atom  62H    basis set group =>   2
Atom  63H    basis set group =>   2
Atom  64H    basis set group =>   2
Atom  65H    basis set group =>   2
Atom  66C    basis set group =>   1
Atom  67C    basis set group =>   1
Atom  68H    basis set group =>   2
Atom  69H    basis set group =>   2
Atom  70C    basis set group =>   1
Atom  71H    basis set group =>   2
Atom  72H    basis set group =>   2
Atom  73H    basis set group =>   2
-------------------------
ECP PARAMETER INFORMATION
-------------------------

 Group 1, Type Ru ECP Def2-ECP (replacing 28 core electrons, lmax=3)

Atom  51Ru   ECP group =>   1



           ************************************************************
           *        Program running with 8 parallel MPI-processes     *
           *              working on a common directory               *
           ************************************************************
------------------------------------------------------------------------------
                           ORCA GTO INTEGRAL CALCULATION
                           -- RI-GTO INTEGRALS CHOSEN --
------------------------------------------------------------------------------
------------------------------------------------------------------------------
                   ___                                                        
                  /   \      - P O W E R E D   B Y -                         
                 /     \                                                     
                 |  |  |   _    _      __       _____    __    __             
                 |  |  |  | |  | |    /  \     |  _  \  |  |  /  |          
                  \  \/   | |  | |   /    \    | | | |  |  | /  /          
                 / \  \   | |__| |  /  /\  \   | |_| |  |  |/  /          
                |  |  |   |  __  | /  /__\  \  |    /   |      \           
                |  |  |   | |  | | |   __   |  |    \   |  |\   \          
                \     /   | |  | | |  |  |  |  | |\  \  |  | \   \       
                 \___/    |_|  |_| |__|  |__|  |_| \__\ |__|  \__/        
                                                                              
                      - O R C A' S   B I G   F R I E N D -                    
                                      &                                       
                       - I N T E G R A L  F E E D E R -                       
                                                                              
 v1 FN, 2020, v2 2021                                                         
------------------------------------------------------------------------------


Reading SHARK input file Ru-PRC_2_B2PLYP_def2SVP.SHARKINP.tmp ... ok
----------------------
SHARK INTEGRAL PACKAGE
----------------------

Number of atoms                             ...     74
Number of basis functions                   ...    801
Number of shells                            ...    365
Maximum angular momentum                    ...      3
Integral batch strategy                     ... SHARK/LIBINT Hybrid
RI-J (if used) integral strategy            ... SPLIT-RIJ (Revised 2003 algorithm where possible)
Printlevel                                  ...      1
Contraction scheme used                     ... SEGMENTED contraction
Coulomb Range Separation                    ... NOT USED
Exchange Range Separation                   ... NOT USED
Finite Nucleus Model                        ... NOT USED
Auxiliary Coulomb fitting basis             ... AVAILABLE
   # of basis functions in Aux-J            ...   2602
   # of shells in Aux-J                     ...    838
   Maximum angular momentum in Aux-J        ...      4
Auxiliary J/K fitting basis                 ... NOT available
Auxiliary Correlation fitting basis         ... AVAILABLE
   # of basis functions in Aux-C            ...   2684
   # of shells in Aux-C                     ...    918
   Maximum angular momentum in Aux-C        ...      5
Auxiliary 'external' fitting basis          ... NOT available
Integral threshold                          ...     2.500000e-11
Primitive cut-off                           ...     2.500000e-12
Primitive pair pre-selection threshold      ...     2.500000e-12

Calculating pre-screening integrals         ... done (  0.1 sec) Dimension = 365
Organizing shell pair data                  ... done (  0.2 sec)
Shell pair information
Total number of shell pairs                 ...     66795
Shell pairs after pre-screening             ...     42372
Total number of primitive shell pairs       ...    245334
Primitive shell pairs kept                  ...     91097
          la=0 lb=0:  12482 shell pairs
          la=1 lb=0:  15707 shell pairs
          la=1 lb=1:   5016 shell pairs
          la=2 lb=0:   5104 shell pairs
          la=2 lb=1:   3334 shell pairs
          la=2 lb=2:    457 shell pairs
          la=3 lb=0:    149 shell pairs
          la=3 lb=1:     90 shell pairs
          la=3 lb=2:     32 shell pairs
          la=3 lb=3:      1 shell pairs

Calculating one electron integrals          ... done (  0.1 sec)
Calculating ECP integrals                   ... done (  1.0 sec)
Calculating RI/J V-Matrix + Cholesky decomp.... done (  0.5 sec)
Calculating RI/C V-Matrix + Cholesky decomp.... done (  0.3 sec)
Calculating Nuclear repulsion               ... done (  0.0 sec) ENN=   6024.905487618291 Eh

SHARK setup successfully completed in   2.8 seconds

Maximum memory used throughout the entire GTOINT-calculation: 75.1 MB


           ************************************************************
           *        Program running with 8 parallel MPI-processes     *
           *              working on a common directory               *
           ************************************************************
-------------------------------------------------------------------------------
                                 ORCA SCF
-------------------------------------------------------------------------------

------------
SCF SETTINGS
------------
Hamiltonian:
 Density Functional     Method          .... DFT(GTOs)
 Exchange Functional    Exchange        .... B88
   X-Alpha parameter    XAlpha          ....  0.666667
   Becke's b parameter  XBeta           ....  0.004200
 Correlation Functional Correlation     .... LYP
 LDA part of GGA corr.  LDAOpt          .... VWN-3
 Gradients option       PostSCFGGA      .... off
 Hybrid DFT is turned on
   Fraction HF Exchange ScalHFX         ....  0.530000
   Scaling of DF-GGA-X  ScalDFX         ....  0.470000
   Scaling of DF-GGA-C  ScalDFC         ....  0.730000
   Scaling of DF-LDA-C  ScalLDAC        ....  0.730000
   Perturbative correction              ....  0.270000
   Density functional embedding theory  .... OFF
   NL short-range parameter             ....  7.800000
 RI-approximation to the Coulomb term is turned on
   Number of AuxJ basis functions       .... 2602
   RIJ-COSX (HFX calculated with COS-X)).... on


General Settings:
 Integral files         IntName         .... Ru-PRC_2_B2PLYP_def2SVP
 Hartree-Fock type      HFTyp           .... RHF
 Total Charge           Charge          ....    2
 Multiplicity           Mult            ....    1
 Number of Electrons    NEL             ....  318
 Basis Dimension        Dim             ....  801
 Nuclear Repulsion      ENuc            ....   6024.9054876183 Eh

Convergence Acceleration:
 DIIS                   CNVDIIS         .... on
   Start iteration      DIISMaxIt       ....    12
   Startup error        DIISStart       ....  0.200000
   # of expansion vecs  DIISMaxEq       ....     5
   Bias factor          DIISBfac        ....   1.050
   Max. coefficient     DIISMaxC        ....  10.000
 Trust-Rad. Augm. Hess. CNVTRAH         .... auto
   Auto Start mean grad. ratio tolernc. ....  1.125000
   Auto Start start iteration           ....    20
   Auto Start num. interpolation iter.  ....    10
   Max. Number of Micro iterations      ....    16
   Max. Number of Macro iterations      .... Maxiter - #DIIS iter
   Number of Davidson start vectors     ....     2
   Converg. threshold I  (grad. norm)   ....   1.000e-05
   Converg. threshold II (energy diff.) ....   1.000e-08
   Grad. Scal. Fac. for Micro threshold ....   0.100
   Minimum threshold for Micro iter.    ....   0.010
   NR start threshold (gradient norm)   ....   0.001
   Initial trust radius                 ....   0.400
   Minimum AH scaling param. (alpha)    ....   1.000
   Maximum AH scaling param. (alpha)    .... 1000.000
   Orbital update algorithm             .... Taylor
   White noise on init. David. guess    .... on
   Maximum white noise                  ....   0.010
   Quad. conv. algorithm                .... NR
 SOSCF                  CNVSOSCF        .... off
 Level Shifting         CNVShift        .... on
   Level shift para.    LevelShift      ....    0.2500
   Turn off err/grad.   ShiftErr        ....    0.0010
 Zerner damping         CNVZerner       .... off
 Static damping         CNVDamp         .... on
   Fraction old density DampFac         ....    0.7000
   Max. Damping (<1)    DampMax         ....    0.9800
   Min. Damping (>=0)   DampMin         ....    0.0000
   Turn off err/grad.   DampErr         ....    0.1000
 Fernandez-Rico         CNVRico         .... off

SCF Procedure:
 Maximum # iterations   MaxIter         ....   125
 SCF integral mode      SCFMode         .... Direct
   Integral package                     .... SHARK and LIBINT hybrid scheme
 Reset frequency        DirectResetFreq ....    20
 Integral Threshold     Thresh          ....  2.500e-11 Eh
 Primitive CutOff       TCut            ....  2.500e-12 Eh

Convergence Tolerance:
 Convergence Check Mode ConvCheckMode   .... Total+1el-Energy
 Convergence forced     ConvForced      .... 1
 Energy Change          TolE            ....  1.000e-08 Eh
 1-El. energy change                    ....  1.000e-05 Eh
 DIIS Error             TolErr          ....  5.000e-07


Diagonalization of the overlap matrix:
Smallest eigenvalue                        ... 1.491e-04
Time for diagonalization                   ...    0.267 sec
Threshold for overlap eigenvalues          ... 1.000e-08
Number of eigenvalues below threshold      ... 0
Time for construction of square roots      ...    0.109 sec
Total time needed                          ...    0.378 sec

Time for model grid setup =    0.734 sec

------------------------------
INITIAL GUESS: MODEL POTENTIAL
------------------------------
Loading Hartree-Fock densities                     ... done
  calling /project/ligandum/orca_504_openmpi411/orca Ru-PRC_2_B2PLYP_def2SVP_atom44.inp > Ru-PRC_2_B2PLYP_def2SVP_atom44.out in order to generate an atomic fitting density for atom 51 (Ru with ECP) on-the-fly... 
    atom 51 (Ru), assumed electronic state with S=5: 1s2 2s2 2p6 3s2 3p6 4s2 3d10 4p6 5s2 4d6           ... done
Calculating cut-offs                               ... done
Initializing the effective Hamiltonian             ... done
Setting up the integral package (SHARK)            ... done
Starting the Coulomb interaction                   ... done (   0.7 sec)
Reading the grid                                   ... done
Mapping shells                                     ... done
Starting the XC term evaluation                    ... done (   0.3 sec)
  promolecular density results
     # of electrons  =    348.008916634
     EX              =   -377.802835811
     EC              =     -4.359661933
     EX+EC           =   -382.162497744
Transforming the Hamiltonian                       ... done (   0.1 sec)
Diagonalizing the Hamiltonian                      ... done (   0.1 sec)
Back transforming the eigenvectors                 ... done (   0.0 sec)
Now organizing SCF variables                       ... done
                      ------------------
                      INITIAL GUESS DONE (   7.6 sec)
                      ------------------
-------------------
DFT GRID GENERATION
-------------------

General Integration Accuracy     IntAcc      ... 4.388
Radial Grid Type                 RadialGrid  ... OptM3 with GC (2021)
Angular Grid (max. ang.)         AngularGrid ... 4 (Lebedev-302)
Angular grid pruning method      GridPruning ... 4 (adaptive)
Weight generation scheme         WeightScheme... Becke
Basis function cutoff            BFCut       ... 1.0000e-11
Integration weight cutoff        WCut        ... 1.0000e-14
Angular grids for H and He will be reduced by one unit
Partially contracted basis set               ... off
Rotationally invariant grid construction     ... off

Total number of grid points                  ...   362865
Total number of batches                      ...     5709
Average number of points per batch           ...       63
Average number of grid points per atom       ...     4904
Time for grid setup =    2.781 sec

--------------------
COSX GRID GENERATION
--------------------

GRIDX 1
-------
General Integration Accuracy     IntAcc      ... 3.816
Radial Grid Type                 RadialGrid  ... OptM3 with GC (2021)
Angular Grid (max. ang.)         AngularGrid ... 1 (Lebedev-50)
Angular grid pruning method      GridPruning ... 4 (adaptive)
Weight generation scheme         WeightScheme... Becke
Basis function cutoff            BFCut       ... 1.0000e-11
Integration weight cutoff        WCut        ... 1.0000e-14
Angular grids for H and He will be reduced by one unit
Partially contracted basis set               ... on
Rotationally invariant grid construction     ... off

Total number of grid points                  ...    45788
Total number of batches                      ...      744
Average number of points per batch           ...       61
Average number of grid points per atom       ...      619
UseSFitting                                  ... on

GRIDX 2
-------
General Integration Accuracy     IntAcc      ... 4.020
Radial Grid Type                 RadialGrid  ... OptM3 with GC (2021)
Angular Grid (max. ang.)         AngularGrid ... 2 (Lebedev-110)
Angular grid pruning method      GridPruning ... 4 (adaptive)
Weight generation scheme         WeightScheme... Becke
Basis function cutoff            BFCut       ... 1.0000e-11
Integration weight cutoff        WCut        ... 1.0000e-14
Angular grids for H and He will be reduced by one unit
Partially contracted basis set               ... on
Rotationally invariant grid construction     ... off

Total number of grid points                  ...    99493
Total number of batches                      ...     1592
Average number of points per batch           ...       62
Average number of grid points per atom       ...     1344
UseSFitting                                  ... on

GRIDX 3
-------
General Integration Accuracy     IntAcc      ... 4.338
Radial Grid Type                 RadialGrid  ... OptM3 with GC (2021)
Angular Grid (max. ang.)         AngularGrid ... 3 (Lebedev-194)
Angular grid pruning method      GridPruning ... 4 (adaptive)
Weight generation scheme         WeightScheme... Becke
Basis function cutoff            BFCut       ... 1.0000e-11
Integration weight cutoff        WCut        ... 1.0000e-14
Angular grids for H and He will be reduced by one unit
Partially contracted basis set               ... on
Rotationally invariant grid construction     ... off

Total number of grid points                  ...   215791
Total number of batches                      ...     3408
Average number of points per batch           ...       63
Average number of grid points per atom       ...     2916
UseSFitting                                  ... on

Time for X-Grid setup             =    2.864 sec


--------------------
CPCM SOLVATION MODEL
--------------------
CPCM parameters:
  Epsilon                                         ...      37.2190
  Refrac                                          ...       1.4305
  Rsolv                                           ...       1.3000
  Surface type                                    ... GAUSSIAN VDW
  Epsilon function type                           ...         CPCM
Solvent:                                     ... DMF
SMD-CDS solvent descriptors:
  Soln                                       ...    1.4305
  Soln25                                     ...    1.4280
  Sola                                       ...    0.0000
  Solb                                       ...    0.7400
  Solg                                       ...   49.5600
  Solc                                       ...    0.0000
  Solh                                       ...    0.0000
Radii:
 Radius for C  used is    3.4960 Bohr (=   1.8500 Ang.)
 Radius for H  used is    2.2677 Bohr (=   1.2000 Ang.)
 Radius for N  used is    3.5716 Bohr (=   1.8900 Ang.)
 Radius for Ru used is    3.9117 Bohr (=   2.0700 Ang.)
Calculating surface                               ...        done! (  0.0s)
GEPOL surface points                              ...         4064
GEPOL Volume                                      ...    3996.9030
GEPOL Surface-area                                ...    2020.7397
Calculating surface distance matrix               ...        done! (  0.1s)
Performing Cholesky decomposition & store         ...        done! (  0.5s)
Overall time for CPCM initialization              ...                 0.6s
--------------
SCF ITERATIONS
--------------
ITER       Energy         Delta-E        Max-DP      RMS-DP      [F,P]     Damp
               ***  Starting incremental Fock matrix formation  ***
  0  -1919.6191192436   0.000000000000 0.22055648  0.00169538  0.3591013 0.7000
  1  -1920.1581063580  -0.538987114398 0.10312608  0.00112687  0.3057622 0.7000
  2  -1920.3597633989  -0.201657040863 0.08251389  0.00077686  0.2379256 0.7000
                               ***Turning on DIIS***
  3  -1920.5009336760  -0.141170277068 0.06500143  0.00055867  0.1673396 0.7000
  4  -1920.6050644732  -0.104130797247 0.03246407  0.00037342  0.1116949 0.7000
  5  -1920.6785202270  -0.073455753801 0.07655138  0.00091550  0.0783673 0.0000
  6  -1920.8586436471  -0.180123420080 0.01250646  0.00010866  0.0084926 0.0000
  7  -1920.8607737372  -0.002130090125 0.01061540  0.00006161  0.0031793 0.0000
  8  -1920.8614958368  -0.000722099555 0.00579438  0.00004909  0.0039508 0.0000
  9  -1920.8618856249  -0.000389788093 0.00506185  0.00004690  0.0008903 0.0000
               *** Restarting incremental Fock matrix formation ***
                                   *** Resetting DIIS ***
 10  -1920.8615087530   0.000376871909 0.00184626  0.00002393  0.0010951 0.0000
 11  -1920.8615150398  -0.000006286846 0.00118340  0.00000918  0.0007057 0.0000
 12  -1920.8615198692  -0.000004829399 0.00044560  0.00000290  0.0004353 0.0000
 13  -1920.8615208512  -0.000000981975 0.00017449  0.00000173  0.0000475 0.0000
 14  -1920.8615210067  -0.000000155464 0.00008252  0.00000057  0.0000576 0.0000
 15  -1920.8615209781   0.000000028560 0.00003200  0.00000023  0.0000141 0.0000
 16  -1920.8615210538  -0.000000075667 0.00002588  0.00000013  0.0000077 0.0000
 17  -1920.8615211170  -0.000000063284 0.00000631  0.00000005  0.0000032 0.0000
 18  -1920.8615210503   0.000000066756 0.00000920  0.00000005  0.0000021 0.0000
                            ***DIIS convergence achieved***

               *****************************************************
               *                     SUCCESS                       *
               *           SCF CONVERGED AFTER  19 CYCLES          *
               *****************************************************

Old exchange energy                            =   -138.055533482 Eh
New exchange energy                            =   -138.055665468 Eh
Exchange energy change after final integration =     -0.000131986 Eh
Total energy after final integration           =  -1920.861652998 Eh
Final COS-X integration done in                =    33.116 sec

SMD CDS free energy correction energy :                -6.37806     Kcal/mol
Total Energy after SMD CDS correction =             -1920.871817080 Eh

----------------
TOTAL SCF ENERGY
----------------

Total Energy       :        -1920.87181708 Eh          -52269.57948 eV

Components:
Nuclear Repulsion  :         6024.90548762 Eh          163946.01317 eV
Electronic Energy  :        -7945.77730470 Eh         -216215.59265 eV
One Electron Energy:       -14573.17394850 Eh         -396556.22367 eV
Two Electron Energy:         6627.39664381 Eh          180340.63102 eV
Max COSX asymmetry :            0.00007099 Eh               0.00193 eV
CPCM Dielectric    :           -0.21255701 Eh              -5.78397 eV
SMD CDS (Gcds)     :           -0.01016408 Eh              -0.27658 eV

Virial components:
Potential Energy   :        -3764.81488054 Eh         -102445.82114 eV
Kinetic Energy     :         1843.94306346 Eh           50176.24167 eV
Virial Ratio       :            2.04171970


DFT components:
N(Alpha)           :      159.000015296455 electrons
N(Beta)            :      159.000015296455 electrons
N(Total)           :      318.000030592910 electrons
E(X)               :     -122.776817114926 Eh       
E(C)               :       -7.983294028610 Eh       
E(XC)              :     -130.760111143536 Eh       
DFET-embed. en.    :        0.000000000000 Eh       
CPCM Solvation Model Properties:
Surface-charge          :           -2.06463906
Charge-correction       :            0.01154313 Eh               0.31410 eV
Free-energy (cav+disp)  :           -0.01016408 Eh              -0.27658 eV

---------------
SCF CONVERGENCE
---------------

  Last Energy change         ...    3.7960e-08  Tolerance :   1.0000e-08
  Last MAX-Density change    ...    0.0000e+00  Tolerance :   1.0000e-07
  Last RMS-Density change    ...    0.0000e+00  Tolerance :   5.0000e-09
  Last DIIS Error            ...    6.7660e-07  Tolerance :   5.0000e-07

             **** THE GBW FILE WAS UPDATED (Ru-PRC_2_B2PLYP_def2SVP.gbw) ****
             **** DENSITY Ru-PRC_2_B2PLYP_def2SVP.scfp WAS UPDATED ****
             **** ENERGY FILE WAS UPDATED (Ru-PRC_2_B2PLYP_def2SVP.en.tmp) ****
             **** THE GBW FILE WAS UPDATED (Ru-PRC_2_B2PLYP_def2SVP.gbw) ****
             **** DENSITY Ru-PRC_2_B2PLYP_def2SVP.scfp WAS UPDATED ****
----------------
ORBITAL ENERGIES
----------------

  NO   OCC          E(Eh)            E(eV) 
   0   2.0000     -14.904479      -405.5715 
   1   2.0000     -14.904199      -405.5639 
   2   2.0000     -14.904192      -405.5637 
   3   2.0000     -14.904112      -405.5615 
   4   2.0000     -14.904060      -405.5601 
   5   2.0000     -14.903884      -405.5553 
   6   2.0000     -10.694988      -291.0254 
   7   2.0000     -10.694682      -291.0171 
   8   2.0000     -10.694363      -291.0084 
   9   2.0000     -10.694264      -291.0057 
  10   2.0000     -10.694067      -291.0004 
  11   2.0000     -10.693528      -290.9857 
  12   2.0000     -10.693254      -290.9782 
  13   2.0000     -10.693166      -290.9758 
  14   2.0000     -10.692924      -290.9692 
  15   2.0000     -10.692891      -290.9684 
  16   2.0000     -10.692778      -290.9653 
  17   2.0000     -10.691389      -290.9275 
  18   2.0000     -10.666473      -290.2495 
  19   2.0000     -10.666269      -290.2439 
  20   2.0000     -10.666195      -290.2419 
  21   2.0000     -10.666107      -290.2395 
  22   2.0000     -10.665964      -290.2356 
  23   2.0000     -10.665776      -290.2305 
  24   2.0000     -10.665558      -290.2246 
  25   2.0000     -10.665483      -290.2225 
  26   2.0000     -10.665460      -290.2219 
  27   2.0000     -10.665405      -290.2204 
  28   2.0000     -10.665265      -290.2166 
  29   2.0000     -10.664401      -290.1931 
  30   2.0000     -10.662828      -290.1503 
  31   2.0000     -10.653420      -289.8943 
  32   2.0000     -10.653166      -289.8874 
  33   2.0000     -10.653098      -289.8855 
  34   2.0000     -10.653003      -289.8829 
  35   2.0000     -10.652883      -289.8797 
  36   2.0000     -10.652211      -289.8614 
  37   2.0000     -10.652112      -289.8587 
  38   2.0000     -10.651966      -289.8547 
  39   2.0000     -10.651322      -289.8372 
  40   2.0000     -10.651226      -289.8346 
  41   2.0000     -10.651058      -289.8300 
  42   2.0000     -10.648338      -289.7560 
  43   2.0000     -10.627370      -289.1854 
  44   2.0000     -10.621332      -289.0212 
  45   2.0000      -3.222801       -87.6969 
  46   2.0000      -2.001713       -54.4694 
  47   2.0000      -2.001399       -54.4608 
  48   2.0000      -1.994071       -54.2614 
  49   2.0000      -1.127738       -30.6873 
  50   2.0000      -1.120691       -30.4956 
  51   2.0000      -1.120606       -30.4932 
  52   2.0000      -1.092947       -29.7406 
  53   2.0000      -1.092655       -29.7327 
  54   2.0000      -1.092393       -29.7255 
  55   2.0000      -0.989397       -26.9229 
  56   2.0000      -0.987301       -26.8658 
  57   2.0000      -0.987032       -26.8585 
  58   2.0000      -0.963333       -26.2136 
  59   2.0000      -0.942138       -25.6369 
  60   2.0000      -0.941870       -25.6296 
  61   2.0000      -0.940365       -25.5886 
  62   2.0000      -0.937657       -25.5149 
  63   2.0000      -0.937398       -25.5079 
  64   2.0000      -0.908753       -24.7284 
  65   2.0000      -0.875538       -23.8246 
  66   2.0000      -0.875243       -23.8166 
  67   2.0000      -0.872390       -23.7389 
  68   2.0000      -0.871570       -23.7166 
  69   2.0000      -0.871267       -23.7084 
  70   2.0000      -0.861261       -23.4361 
  71   2.0000      -0.794121       -21.6091 
  72   2.0000      -0.775901       -21.1134 
  73   2.0000      -0.774654       -21.0794 
  74   2.0000      -0.774477       -21.0746 
  75   2.0000      -0.761050       -20.7092 
  76   2.0000      -0.760467       -20.6934 
  77   2.0000      -0.757806       -20.6210 
  78   2.0000      -0.752193       -20.4682 
  79   2.0000      -0.751977       -20.4623 
  80   2.0000      -0.750246       -20.4152 
  81   2.0000      -0.717063       -19.5123 
  82   2.0000      -0.715635       -19.4734 
  83   2.0000      -0.715181       -19.4611 
  84   2.0000      -0.670816       -18.2538 
  85   2.0000      -0.658197       -17.9105 
  86   2.0000      -0.656752       -17.8711 
  87   2.0000      -0.652729       -17.7616 
  88   2.0000      -0.641474       -17.4554 
  89   2.0000      -0.640531       -17.4297 
  90   2.0000      -0.622282       -16.9332 
  91   2.0000      -0.621368       -16.9083 
  92   2.0000      -0.619770       -16.8648 
  93   2.0000      -0.619500       -16.8574 
  94   2.0000      -0.583396       -15.8750 
  95   2.0000      -0.581506       -15.8236 
  96   2.0000      -0.580563       -15.7979 
  97   2.0000      -0.580198       -15.7880 
  98   2.0000      -0.579173       -15.7601 
  99   2.0000      -0.574231       -15.6256 
 100   2.0000      -0.568831       -15.4787 
 101   2.0000      -0.568459       -15.4686 
 102   2.0000      -0.566532       -15.4161 
 103   2.0000      -0.539515       -14.6810 
 104   2.0000      -0.538845       -14.6627 
 105   2.0000      -0.536045       -14.5865 
 106   2.0000      -0.533156       -14.5079 
 107   2.0000      -0.524228       -14.2650 
 108   2.0000      -0.524044       -14.2600 
 109   2.0000      -0.523726       -14.2513 
 110   2.0000      -0.518573       -14.1111 
 111   2.0000      -0.518389       -14.1061 
 112   2.0000      -0.514462       -13.9992 
 113   2.0000      -0.513625       -13.9764 
 114   2.0000      -0.512821       -13.9546 
 115   2.0000      -0.501750       -13.6533 
 116   2.0000      -0.499790       -13.6000 
 117   2.0000      -0.498219       -13.5572 
 118   2.0000      -0.496255       -13.5038 
 119   2.0000      -0.495019       -13.4702 
 120   2.0000      -0.492050       -13.3894 
 121   2.0000      -0.491427       -13.3724 
 122   2.0000      -0.488528       -13.2935 
 123   2.0000      -0.484212       -13.1761 
 124   2.0000      -0.477424       -12.9914 
 125   2.0000      -0.471686       -12.8352 
 126   2.0000      -0.468701       -12.7540 
 127   2.0000      -0.458359       -12.4726 
 128   2.0000      -0.454769       -12.3749 
 129   2.0000      -0.448680       -12.2092 
 130   2.0000      -0.445931       -12.1344 
 131   2.0000      -0.444383       -12.0923 
 132   2.0000      -0.439448       -11.9580 
 133   2.0000      -0.423316       -11.5190 
 134   2.0000      -0.422828       -11.5057 
 135   2.0000      -0.422610       -11.4998 
 136   2.0000      -0.421012       -11.4563 
 137   2.0000      -0.417044       -11.3484 
 138   2.0000      -0.414182       -11.2705 
 139   2.0000      -0.412535       -11.2256 
 140   2.0000      -0.390725       -10.6322 
 141   2.0000      -0.389582       -10.6011 
 142   2.0000      -0.386081       -10.5058 
 143   2.0000      -0.380613       -10.3570 
 144   2.0000      -0.377634       -10.2759 
 145   2.0000      -0.371728       -10.1152 
 146   2.0000      -0.369229       -10.0472 
 147   2.0000      -0.365004        -9.9323 
 148   2.0000      -0.363291        -9.8856 
 149   2.0000      -0.324906        -8.8411 
 150   2.0000      -0.303470        -8.2578 
 151   2.0000      -0.302103        -8.2206 
 152   2.0000      -0.295361        -8.0372 
 153   2.0000      -0.292885        -7.9698 
 154   2.0000      -0.288304        -7.8451 
 155   2.0000      -0.276862        -7.5338 
 156   2.0000      -0.263238        -7.1631 
 157   2.0000      -0.260456        -7.0874 
 158   2.0000      -0.259414        -7.0590 
 159   0.0000      -0.041326        -1.1245 
 160   0.0000      -0.034768        -0.9461 
 161   0.0000      -0.032882        -0.8948 
 162   0.0000      -0.029447        -0.8013 
 163   0.0000      -0.025643        -0.6978 
 164   0.0000      -0.025091        -0.6827 
 165   0.0000       0.013907         0.3784 
 166   0.0000       0.025574         0.6959 
 167   0.0000       0.028991         0.7889 
 168   0.0000       0.042568         1.1583 
 169   0.0000       0.055973         1.5231 
 170   0.0000       0.057053         1.5525 
 171   0.0000       0.079595         2.1659 
 172   0.0000       0.098674         2.6851 
 173   0.0000       0.099362         2.7038 
 174   0.0000       0.100476         2.7341 
 175   0.0000       0.108267         2.9461 
 176   0.0000       0.113138         3.0786 
 177   0.0000       0.113559         3.0901 
 178   0.0000       0.119785         3.2595 
 179   0.0000       0.120337         3.2745 
 180   0.0000       0.123599         3.3633 
 181   0.0000       0.125378         3.4117 
 182   0.0000       0.127445         3.4680 
 183   0.0000       0.131297         3.5728 
 184   0.0000       0.137622         3.7449 
 185   0.0000       0.138275         3.7627 
 186   0.0000       0.144263         3.9256 
 187   0.0000       0.148434         4.0391 
 188   0.0000       0.150306         4.0900 
 189   0.0000       0.154543         4.2053 
 190   0.0000       0.159879         4.3505 
 191   0.0000       0.166120         4.5204 
 192   0.0000       0.171344         4.6625 
 193   0.0000       0.174353         4.7444 
 194   0.0000       0.178210         4.8493 
 195   0.0000       0.179330         4.8798 
 196   0.0000       0.182186         4.9575 
 197   0.0000       0.186992         5.0883 
 198   0.0000       0.188657         5.1336 
 199   0.0000       0.190968         5.1965 
 200   0.0000       0.194550         5.2940 
 201   0.0000       0.196643         5.3509 
 202   0.0000       0.203573         5.5395 
 203   0.0000       0.208931         5.6853 
 204   0.0000       0.216936         5.9031 
 205   0.0000       0.217437         5.9168 
 206   0.0000       0.220461         5.9991 
 207   0.0000       0.223489         6.0814 
 208   0.0000       0.226418         6.1612 
 209   0.0000       0.228107         6.2071 
 210   0.0000       0.253282         6.8921 
 211   0.0000       0.269778         7.3410 
 212   0.0000       0.273836         7.4515 
 213   0.0000       0.274187         7.4610 
 214   0.0000       0.276994         7.5374 
 215   0.0000       0.281767         7.6673 
 216   0.0000       0.288426         7.8485 
 217   0.0000       0.290232         7.8976 
 218   0.0000       0.291262         7.9257 
 219   0.0000       0.297014         8.0822 
 220   0.0000       0.297632         8.0990 
 221   0.0000       0.302605         8.2343 
 222   0.0000       0.303441         8.2570 
 223   0.0000       0.312369         8.5000 
 224   0.0000       0.316477         8.6118 
 225   0.0000       0.319010         8.6807 
 226   0.0000       0.321832         8.7575 
 227   0.0000       0.325007         8.8439 
 228   0.0000       0.325857         8.8670 
 229   0.0000       0.335044         9.1170 
 230   0.0000       0.337296         9.1783 
 231   0.0000       0.342335         9.3154 
 232   0.0000       0.346746         9.4354 
 233   0.0000       0.349054         9.4982 
 234   0.0000       0.350206         9.5296 
 235   0.0000       0.352695         9.5973 
 236   0.0000       0.354493         9.6463 
 237   0.0000       0.357846         9.7375 
 238   0.0000       0.360455         9.8085 
 239   0.0000       0.362258         9.8575 
 240   0.0000       0.365051         9.9336 
 241   0.0000       0.367993        10.0136 
 242   0.0000       0.371352        10.1050 
 243   0.0000       0.374677        10.1955 
 244   0.0000       0.378307        10.2943 
 245   0.0000       0.379625        10.3301 
 246   0.0000       0.386957        10.5296 
 247   0.0000       0.392896        10.6912 
 248   0.0000       0.394542        10.7360 
 249   0.0000       0.398520        10.8443 
 250   0.0000       0.399813        10.8795 
 251   0.0000       0.406119        11.0511 
 252   0.0000       0.411914        11.2088 
 253   0.0000       0.418020        11.3749 
 254   0.0000       0.421649        11.4736 
 255   0.0000       0.426937        11.6175 
 256   0.0000       0.428223        11.6525 
 257   0.0000       0.432746        11.7756 
 258   0.0000       0.436048        11.8655 
 259   0.0000       0.443197        12.0600 
 260   0.0000       0.444194        12.0871 
 261   0.0000       0.449762        12.2386 
 262   0.0000       0.457720        12.4552 
 263   0.0000       0.465394        12.6640 
 264   0.0000       0.472421        12.8552 
 265   0.0000       0.474616        12.9150 
 266   0.0000       0.479921        13.0593 
 267   0.0000       0.482492        13.1293 
 268   0.0000       0.485657        13.2154 
 269   0.0000       0.488009        13.2794 
 270   0.0000       0.493740        13.4354 
 271   0.0000       0.498946        13.5770 
 272   0.0000       0.502454        13.6725 
 273   0.0000       0.507688        13.8149 
 274   0.0000       0.510921        13.9029 
 275   0.0000       0.515606        14.0304 
 276   0.0000       0.517174        14.0730 
 277   0.0000       0.518306        14.1038 
 278   0.0000       0.520363        14.1598 
 279   0.0000       0.520869        14.1736 
 280   0.0000       0.523232        14.2379 
 281   0.0000       0.530224        14.4281 
 282   0.0000       0.532012        14.4768 
 283   0.0000       0.533469        14.5164 
 284   0.0000       0.535110        14.5611 
 285   0.0000       0.535923        14.5832 
 286   0.0000       0.538228        14.6459 
 287   0.0000       0.539205        14.6725 
 288   0.0000       0.540614        14.7108 
 289   0.0000       0.546302        14.8656 
 290   0.0000       0.549349        14.9486 
 291   0.0000       0.551026        14.9942 
[...]
   155a -> 160a  :     0.479980 
   155a -> 161a  :     0.132256 
   155a -> 164a  :     0.023734 
   156a -> 160a  :     0.047160 
   156a -> 161a  :     0.014358 
   157a -> 165a  :     0.012167 
   158a -> 160a  :     0.020854 
   158a -> 165a  :     0.012814 

STATE 36:  E=   0.162675 au      4.427 eV    35703.1 cm**-1 <S**2> =   0.000000
   149a -> 159a  :     0.208394 
   149a -> 164a  :     0.016682 
   150a -> 162a  :     0.022988 
   151a -> 163a  :     0.020513 
   153a -> 159a  :     0.018878 
   153a -> 163a  :     0.010913 
   154a -> 159a  :     0.012466 
   154a -> 160a  :     0.016783 
   155a -> 160a  :     0.040637 
   155a -> 162a  :     0.014465 
   155a -> 165a  :     0.014594 
   155a -> 166a  :     0.030599 
   156a -> 165a  :     0.150072 
   156a -> 166a  :     0.039154 
   157a -> 165a  :     0.010206 
   158a -> 165a  :     0.133315 
   158a -> 166a  :     0.032924 

STATE 37:  E=   0.168676 au      4.590 eV    37020.0 cm**-1 <S**2> =   0.000000
   150a -> 163a  :     0.179260 
   151a -> 162a  :     0.139668 
   151a -> 163a  :     0.013347 
   151a -> 164a  :     0.039591 
   152a -> 159a  :     0.013948 
   152a -> 160a  :     0.113516 
   153a -> 161a  :     0.023262 
   153a -> 162a  :     0.082506 
   153a -> 164a  :     0.012562 
   154a -> 161a  :     0.107774 
   154a -> 167a  :     0.013499 
   155a -> 160a  :     0.016114 
   155a -> 161a  :     0.055108 
   155a -> 163a  :     0.015634 
   156a -> 163a  :     0.010105 
   157a -> 165a  :     0.026535 

STATE 38:  E=   0.169575 au      4.614 eV    37217.5 cm**-1 <S**2> =   0.000000
   149a -> 159a  :     0.027340 
   150a -> 162a  :     0.166276 
   150a -> 164a  :     0.039660 
   151a -> 160a  :     0.011436 
   151a -> 163a  :     0.142830 
   152a -> 161a  :     0.056841 
   152a -> 162a  :     0.010324 
   152a -> 167a  :     0.013087 
   153a -> 160a  :     0.017813 
   153a -> 163a  :     0.089259 
   154a -> 160a  :     0.095956 
   154a -> 166a  :     0.012174 
   155a -> 164a  :     0.023438 
   156a -> 165a  :     0.058726 
   157a -> 165a  :     0.042513 
   157a -> 167a  :     0.011121 

STATE 39:  E=   0.166001 au      4.517 eV    36433.1 cm**-1 <S**2> =   0.000000
   149a -> 161a  :     0.011710 
   155a -> 159a  :     0.014991 
   155a -> 160a  :     0.175838 
   155a -> 161a  :     0.549975 
   155a -> 164a  :     0.021665 
   156a -> 160a  :     0.015767 
   156a -> 161a  :     0.053654 
   156a -> 165a  :     0.012213 
   158a -> 160a  :     0.012933 
   158a -> 161a  :     0.028041 

STATE 40:  E=   0.162615 au      4.425 eV    35689.9 cm**-1 <S**2> =   0.000000
   152a -> 159a  :     0.118620 
   153a -> 159a  :     0.202181 
   154a -> 159a  :     0.325889 
   154a -> 160a  :     0.026200 
   155a -> 159a  :     0.024225 
   155a -> 162a  :     0.010105 
   158a -> 159a  :     0.033092 
   158a -> 165a  :     0.160376 


-------------------------
TD-DFT-EXCITATION SPECTRA
-------------------------

Center of mass = (  0.0489, -0.0060,  0.0290)
Calculating the Dipole integrals                  ... done
Transforming integrals                            ... done
Calculating the Linear Momentum integrals         ... done
Transforming integrals                            ... done
Calculating angular momentum integrals            ... done
Transforming integrals                            ... done

-----------------------------------------------------------------------------
         ABSORPTION SPECTRUM VIA TRANSITION ELECTRIC DIPOLE MOMENTS
-----------------------------------------------------------------------------
State   Energy    Wavelength  fosc         T2        TX        TY        TZ  
        (cm-1)      (nm)                 (au**2)    (au)      (au)      (au) 
-----------------------------------------------------------------------------
   1   25017.1    399.7   0.012384161   0.16297  -0.34281   0.19231  -0.09204
   2   27386.0    365.2   0.012645898   0.15202  -0.17623  -0.33648   0.08801
   3   22222.2    450.0   0.024536950   0.36350   0.02659   0.29719  -0.52390
   4   20769.8    481.5   0.108718504   1.72324  -0.68894  -1.11105   0.11904
   5   27303.8    366.2   0.001061703   0.01280   0.05449   0.07068  -0.06955
   6   26186.0    381.9   0.005295894   0.06658  -0.13360   0.18210   0.12478
   7   21337.3    468.7   0.034454904   0.53160  -0.59017   0.38402   0.18930
   8   21538.1    464.3   0.092756698   1.41779  -0.96983   0.63269   0.27735
   9   17390.8    575.0   0.002313507   0.04380  -0.15850   0.11537   0.07323
  10   18882.9    529.6   0.020899393   0.36437  -0.51863   0.30292   0.06028
  11   19541.8    511.7   0.001182813   0.01993  -0.09324  -0.09752   0.04149
  12   22141.3    451.6   0.012495105   0.18579   0.31400   0.29356  -0.03188
  13   26392.8    378.9   0.052127769   0.65022  -0.39227   0.43166  -0.55679
  14   23505.7    425.4   0.080313857   1.12485   0.70584   0.78151  -0.12604
  15   24074.5    415.4   0.096698611   1.32233  -0.59257   0.81048   0.56063
  16   25402.6    393.7   0.063661367   0.82504  -0.75058  -0.48199   0.17134
  17   23253.4    430.0   0.116671213   1.65178   1.12605  -0.57571   0.22884
  18   21559.5    463.8   0.027359422   0.41778  -0.33274   0.18568  -0.52210
  19   23755.9    420.9   0.101640699   1.40855   0.74734  -0.13330   0.91229
  20   21510.2    464.9   0.001604160   0.02455  -0.06727  -0.08572   0.11260
  21   23481.2    425.9   0.007657403   0.10736   0.12052   0.26849  -0.14404
  22   24151.6    414.1   0.289371341   3.94443  -1.49661   0.71847  -1.09013
  23   28363.9    352.6   0.015443167   0.17924   0.42062   0.01305  -0.04639
  24   27402.2    364.9   0.025614932   0.30774  -0.42097  -0.30051  -0.20055
  25   26147.2    382.5   0.002952180   0.03717  -0.08240   0.09278  -0.14755
  26   33777.6    296.1   0.008092460   0.07887   0.26022   0.09214   0.05165
  27   32569.7    307.0   0.000876796   0.00886   0.01016  -0.01545  -0.09231
  28   35456.4    282.0   0.002302065   0.02137   0.01415   0.11005  -0.09520
  29   31386.6    318.6   0.006762852   0.07094   0.02127   0.22132  -0.14662
  30   29497.7    339.0   0.021875431   0.24414   0.25735   0.02207   0.42122
  31   32806.0    304.8   0.174564370   1.75177   1.08913  -0.57535   0.48430
  32   37105.9    269.5   0.299063827   2.65336  -0.71121  -1.37948   0.49456
  33   34442.0    290.3   0.266605247   2.54833   1.26896   0.80806  -0.53395
  34   37082.2    269.7   1.253422285  11.12776  -0.95705  -0.74055  -3.10860
  35   35939.6    278.2   0.116782805   1.06975   0.72253  -0.48931  -0.55523
  36   35703.1    280.1   0.049897197   0.46009  -0.54079  -0.32180  -0.25314
  37   37020.0    270.1   0.276839821   2.46189  -1.31817   0.79545   0.30261
  38   37217.5    268.7   0.089781192   0.79417  -0.07633  -0.72795   0.50837
  39   36433.1    274.5   0.019065037   0.17227  -0.35395   0.09991  -0.19239
  40   35689.9    280.2   0.034135972   0.31488   0.36554  -0.35003   0.24236

-----------------------------------------------------------------------------
         ABSORPTION SPECTRUM VIA TRANSITION VELOCITY DIPOLE MOMENTS
-----------------------------------------------------------------------------
State   Energy    Wavelength   fosc        P2         PX        PY        PZ  
        (cm-1)      (nm)                 (au**2)     (au)      (au)      (au) 
-----------------------------------------------------------------------------
   1   25017.1    399.7   0.017559176   0.00300   0.04621  -0.02687   0.01204
   2   27386.0    365.2   0.015805445   0.00296   0.02484   0.04681  -0.01225
   3   22222.2    450.0   0.047060333   0.00715  -0.00644  -0.04294   0.07254
   4   20769.8    481.5   0.251890302   0.03576   0.09893   0.16018  -0.01762
   5   27303.8    366.2   0.001419049   0.00026  -0.00876  -0.01032   0.00904
   6   26186.0    381.9   0.008056266   0.00144   0.02010  -0.02652  -0.01829
   7   21337.3    468.7   0.078274952   0.01141   0.08703  -0.05530  -0.02797
   8   21538.1    464.3   0.206439228   0.03039   0.14132  -0.09347  -0.04098
   9   17390.8    575.0   0.008744666   0.00104   0.02435  -0.01770  -0.01154
  10   18882.9    529.6   0.062393553   0.00805   0.07676  -0.04557  -0.00912
  11   19541.8    511.7   0.003735532   0.00050   0.01473   0.01556  -0.00631
  12   22141.3    451.6   0.027724147   0.00420  -0.04632  -0.04492   0.00562
  13   26392.8    378.9   0.082879288   0.01495   0.05757  -0.06690   0.08462
  14   23505.7    425.4   0.166751524   0.02679  -0.10849  -0.12093   0.01987
  15   24074.5    415.4   0.196504755   0.03233   0.09254  -0.12665  -0.08792
  16   25402.6    393.7   0.107284748   0.01863   0.11267   0.07193  -0.02753
  17   23253.4    430.0   0.251242664   0.03993  -0.17463   0.08945  -0.03783
  18   21559.5    463.8   0.073549812   0.01084   0.05348  -0.03109   0.08373
  19   23755.9    420.9   0.227145864   0.03688  -0.12161   0.02468  -0.14656
  20   21510.2    464.9   0.005159443   0.00076   0.01248   0.01632  -0.01834
  21   23481.2    425.9   0.017114798   0.00275  -0.01949  -0.04281   0.02312
  22   24151.6    414.1   0.628873349   0.10380   0.24079  -0.11877   0.17810
  23   28363.9    352.6   0.029588397   0.00574  -0.07509  -0.00095   0.00986
  24   27402.2    364.9   0.048430254   0.00907   0.06914   0.05697   0.03230
  25   26147.2    382.5   0.005761885   0.00103   0.01036  -0.01653   0.02548
  26   33777.6    296.1   0.012028799   0.00278  -0.04678  -0.02300  -0.00770
  27   32569.7    307.0   0.002353793   0.00052  -0.01075   0.00734   0.01883
  28   35456.4    282.0   0.001897064   0.00046  -0.00085  -0.01672   0.01339
  29   31386.6    318.6   0.007816275   0.00168  -0.00141  -0.03406   0.02268
  30   29497.7    339.0   0.029635266   0.00597  -0.04287  -0.00061  -0.06431
  31   32806.0    304.8   0.250374372   0.05614  -0.19308   0.10421  -0.08943
  32   37105.9    269.5   0.322841444   0.08187   0.12518   0.24221  -0.08682
  33   34442.0    290.3   0.371667930   0.08749  -0.22954  -0.15745   0.10004
  34   37082.2    269.7   1.403160930   0.35561   0.17332   0.13549   0.55427
  35   35939.6    278.2   0.154510545   0.03795  -0.13593   0.09214   0.10481
  36   35703.1    280.1   0.075942061   0.01853   0.10911   0.05945   0.05561
  37   37020.0    270.1   0.378152663   0.09568   0.26012  -0.15665  -0.05896
  38   37217.5    268.7   0.120789277   0.03072   0.01335   0.14311  -0.10032
  39   36433.1    274.5   0.027884383   0.00694   0.07108  -0.02166   0.03771
  40   35689.9    280.2   0.051160839   0.01248  -0.07111   0.07219  -0.04702

-------------------------------------------------------------------
                             CD SPECTRUM
-------------------------------------------------------------------
State  Energy     Wavelength     R         MX        MY        MZ   
       (cm-1)       (nm)     (1e40*cgs)   (au)      (au)      (au)  
-------------------------------------------------------------------
   1   25017.1    399.7     78.26426  -0.37764   0.21051   0.04273
   2   27386.0    365.2    113.43402  -0.33904  -0.51039   0.10365
   3   22222.2    450.0     60.20608   0.47564  -0.41226  -0.45347
   4   20769.8    481.5    -50.09379   0.23989  -0.06679  -0.12754
   5   27303.8    366.2    -17.66122  -0.13761   0.12704   0.55993
   6   26186.0    381.9     -3.58578   0.51093  -0.02071   0.51632
   7   21337.3    468.7      9.25509   0.18706   0.47566  -0.27807
   8   21538.1    464.3    -94.67511  -0.13065  -0.48569  -0.07294
   9   17390.8    575.0     -8.83147   0.27671  -0.09170   0.48756
  10   18882.9    529.6     21.05800  -0.08216   0.03533  -0.14345
  11   19541.8    511.7     -0.23518   0.01077  -0.00225   0.00690
  12   22141.3    451.6     -3.07806  -0.02309   0.00837   0.05441
  13   26392.8    378.9     -7.36270  -0.00280   0.00242   0.03190
  14   23505.7    425.4    -271.92883  -0.34940  -0.39277   0.18426
  15   24074.5    415.4    -216.13864   0.45674  -0.30154   0.10093
  16   25402.6    393.7     34.66608   0.07377  -0.27373  -0.01773
  17   23253.4    430.0     71.71023   0.10522  -0.00133   0.14358
  18   21559.5    463.8     35.89916   0.14969   0.02985  -0.23063
  19   23755.9    420.9    137.91284  -0.08110   0.17769   0.41306
  20   21510.2    464.9     12.41510  -0.09507  -0.19363   0.02967
  21   23481.2    425.9    -28.98977  -0.10182  -0.16894   0.02681
  22   24151.6    414.1    -243.47250   0.60472  -0.53874  -0.71154
  23   28363.9    352.6    -25.00156  -0.11808   0.06954   0.09206
  24   27402.2    364.9    -16.55772   0.19898  -0.02127  -0.21068
  25   26147.2    382.5     -0.11907   0.04005  -0.08795  -0.07596
  26   33777.6    296.1     -7.73356  -0.10917   0.05930   0.12664
  27   32569.7    307.0      0.71809   0.00919   0.00220  -0.01586
  28   35456.4    282.0     -2.06632   0.04466  -0.01077   0.04023
  29   31386.6    318.6    -11.75797  -0.02324  -0.11052  -0.00011
  30   29497.7    339.0    -25.68914  -0.15302   0.02421  -0.03714
  31   32806.0    304.8    -372.28803  -0.78104   0.63333   0.87834
  32   37105.9    269.5    -1664.55208   1.17296   1.83326  -0.33878
  33   34442.0    290.3    -400.03895  -0.80205   0.36613   0.23712
  34   37082.2    269.7    2484.25918  -1.19882   0.78409  -1.51281
  35   35939.6    278.2    -115.09080  -0.26634   0.09392   0.01031
  36   35703.1    280.1     -1.73388  -0.16235   0.12216   0.20606
  37   37020.0    270.1    100.75790  -0.17149  -0.05311   0.09886
  38   37217.5    268.7     10.56502   0.08867  -0.02800   0.01731
  39   36433.1    274.5     15.34016  -0.05987   0.05717  -0.02930
  40   35689.9    280.2    -18.83079  -0.01483   0.21093   0.16221

-------------------------------------------------------------------
         CD SPECTRUM VIA TRANSITION VELOCITY DIPOLE MOMENTS        
-------------------------------------------------------------------
State  Energy     Wavelength     R         MX        MY        MZ   
       (cm-1)       (nm)     (1e40*cgs)   (au)      (au)      (au)  
-------------------------------------------------------------------
   1   25017.1    399.7     93.44246  -0.37764   0.21051   0.04273
   2   27386.0    365.2    126.88604  -0.33904  -0.51039   0.10365
   3   22222.2    450.0     85.00779   0.47564  -0.41226  -0.45347
   4   20769.8    481.5    -76.13319   0.23989  -0.06679  -0.12754
   5   27303.8    366.2    -18.77344  -0.13761   0.12704   0.55993
   6   26186.0    381.9     -5.43710   0.51093  -0.02071   0.51632
   7   21337.3    468.7     10.88422   0.18706   0.47566  -0.27807
   8   21538.1    464.3    -143.76629  -0.13065  -0.48569  -0.07294
   9   17390.8    575.0    -16.27655   0.27671  -0.09170   0.48756
  10   18882.9    529.6     36.20994  -0.08216   0.03533  -0.14345
  11   19541.8    511.7     -0.42444   0.01077  -0.00225   0.00690
  12   22141.3    451.6     -4.67077  -0.02309   0.00837   0.05441
  13   26392.8    378.9     -9.31489  -0.00280   0.00242   0.03190
  14   23505.7    425.4    -392.05883  -0.34940  -0.39277   0.18426
  15   24074.5    415.4    -307.65653   0.45674  -0.30154   0.10093
  16   25402.6    393.7     44.35753   0.07377  -0.27373  -0.01773
  17   23253.4    430.0    106.46355   0.10522  -0.00133   0.14358
  18   21559.5    463.8     58.70608   0.14969   0.02985  -0.23063
  19   23755.9    420.9    201.62367  -0.08110   0.17769   0.41306
  20   21510.2    464.9     23.52868  -0.09507  -0.19363   0.02967
  21   23481.2    425.9    -43.34097  -0.10182  -0.16894   0.02681
  22   24151.6    414.1    -355.06126   0.60472  -0.53874  -0.71154
  23   28363.9    352.6    -35.41381  -0.11808   0.06954   0.09206
  24   27402.2    364.9    -21.68279   0.19898  -0.02127  -0.21068
  25   26147.2    382.5      0.26310   0.04005  -0.08795  -0.07596
  26   33777.6    296.1     -8.48067  -0.10917   0.05930   0.12664
  27   32569.7    307.0      1.21117   0.00919   0.00220  -0.01586
  28   35456.4    282.0     -1.98729   0.04466  -0.01077   0.04023
  29   31386.6    318.6    -12.51053  -0.02324  -0.11052  -0.00011
  30   29497.7    339.0    -31.33855  -0.15302   0.02421  -0.03714
  31   32806.0    304.8    -436.07016  -0.78104   0.63333   0.87834
  32   37105.9    269.5    -1729.67041   1.17296   1.83326  -0.33878
  33   34442.0    290.3    -451.16788  -0.80205   0.36613   0.23712
  34   37082.2    269.7    2623.04185  -1.19882   0.78409  -1.51281
  35   35939.6    278.2    -132.25788  -0.26634   0.09392   0.01031
  36   35703.1    280.1     -2.92056  -0.16235   0.12216   0.20606
  37   37020.0    270.1    117.71472  -0.17149  -0.05311   0.09886
  38   37217.5    268.7     12.67552   0.08867  -0.02800   0.01731
  39   36433.1    274.5     18.73956  -0.05987   0.05717  -0.02930
  40   35689.9    280.2    -25.09280  -0.01483   0.21093   0.16221

Total run time:     7384.210 sec

           *** ORCA-CIS/TD-DFT FINISHED WITHOUT ERROR ***

Maximum memory used throughout the entire CIS-calculation: 3841.0 MB

-----------------------
CIS/TD-DFT TOTAL ENERGY
-----------------------

    E(SCF)  =  -1920.871817080 Eh
    DE(CIS) =      0.113986112 Eh (Root  1)
    ----------------------------- ---------
    E(tot)  =  -1920.757830968 Eh


-------------------------   --------------------
FINAL SINGLE POINT ENERGY     -1920.757830967746
-------------------------   --------------------


                            ***************************************
                            *     ORCA property calculations      *
                            ***************************************


  WARNING: The energy has been calculated at the MP2 level but the densities
           used in the property calculations are still SCF densities
           MP2 response densities have not been calculated 
           use %mp2 Density relaxed end
           or  %mp2 Density unrelaxed end

                                    ---------------------
                                    Active property flags
                                    ---------------------
   (+) Dipole Moment


------------------------------------------------------------------------------
                       ORCA ELECTRIC PROPERTIES CALCULATION
------------------------------------------------------------------------------

Dipole Moment Calculation                       ... on
Quadrupole Moment Calculation                   ... off
Polarizability Calculation                      ... off
GBWName                                         ... Ru-PRC_2_B2PLYP_def2SVP.gbw
Electron density                                ... Ru-PRC_2_B2PLYP_def2SVP.scfp
The origin for moment calculation is the CENTER OF MASS  = ( 0.048935, -0.006031  0.029029)

-------------
DIPOLE MOMENT
-------------
                                X             Y             Z
Electronic contribution:     35.79567      -1.75217      19.79048
Nuclear contribution   :    -34.75061       1.93911     -19.30544
                        -----------------------------------------
Total Dipole Moment    :      1.04506       0.18694       0.48504
                        -----------------------------------------
Magnitude (a.u.)       :      1.16720
Magnitude (Debye)      :      2.96679



--------------------
Rotational spectrum 
--------------------
 
Rotational constants in cm-1:     0.002931     0.002526     0.002104 
Rotational constants in MHz :    87.864409    75.721626    63.072758 

 Dipole components along the rotational axes: 
x,y,z [a.u.] :    -1.038246     0.181716     0.501381 
x,y,z [Debye]:    -2.639012     0.461885     1.274410 

 

Timings for individual modules:

Sum of individual times         ...     7893.498 sec (= 131.558 min)
GTO integral calculation        ...        5.961 sec (=   0.099 min)   0.1 %
SCF iterations                  ...      350.838 sec (=   5.847 min)   4.4 %
MP2 module                      ...      150.596 sec (=   2.510 min)   1.9 %
CIS module                      ...     7386.103 sec (= 123.102 min)  93.6 %
                             ****ORCA TERMINATED NORMALLY****
TOTAL RUN TIME: 0 days 2 hours 11 minutes 36 seconds 114 msec
