
                                 *****************
                                 * O   R   C   A *
                                 *****************

                                            #,                                       
                                            ###                                      
                                            ####                                     
                                            #####                                    
                                            ######                                   
                                           ########,                                 
                                     ,,################,,,,,                         
                               ,,#################################,,                 
                          ,,##########################################,,             
                       ,#########################################, ''#####,          
                    ,#############################################,,   '####,        
                  ,##################################################,,,,####,       
                ,###########''''           ''''###############################       
              ,#####''   ,,,,##########,,,,          '''####'''          '####       
            ,##' ,,,,###########################,,,                        '##       
           ' ,,###''''                  '''############,,,                           
         ,,##''                                '''############,,,,        ,,,,,,###''
      ,#''                                            '''#######################'''  
     '                                                          ''''####''''         
             ,#######,   #######,   ,#######,      ##                                
            ,#'     '#,  ##    ##  ,#'     '#,    #''#        ######   ,####,        
            ##       ##  ##   ,#'  ##            #'  '#       #        #'  '#        
            ##       ##  #######   ##           ,######,      #####,   #    #        
            '#,     ,#'  ##    ##  '#,     ,#' ,#      #,         ##   #,  ,#        
             '#######'   ##     ##  '#######'  #'      '#     #####' # '####'        



                  #######################################################
                  #                        -***-                        #
                  #          Department of theory and spectroscopy      #
                  #    Directorship and core code : Frank Neese         #
                  #        Max Planck Institute fuer Kohlenforschung    #
                  #                Kaiser Wilhelm Platz 1               #
                  #                 D-45470 Muelheim/Ruhr               #
                  #                      Germany                        #
                  #                                                     #
                  #                  All rights reserved                #
                  #                        -***-                        #
                  #######################################################


                         Program Version 5.0.4 -  RELEASE  -


 With contributions from (in alphabetic order):
   Daniel Aravena         : Magnetic Suceptibility
   Michael Atanasov       : Ab Initio Ligand Field Theory (pilot matlab implementation)
   Alexander A. Auer      : GIAO ZORA, VPT2 properties, NMR spectrum
   Ute Becker             : Parallelization
   Giovanni Bistoni       : ED, misc. LED, open-shell LED, HFLD
   Martin Brehm           : Molecular dynamics
   Dmytro Bykov           : SCF Hessian
   Vijay G. Chilkuri      : MRCI spin determinant printing, contributions to CSF-ICE
   Dipayan Datta          : RHF DLPNO-CCSD density
   Achintya Kumar Dutta   : EOM-CC, STEOM-CC
   Dmitry Ganyushin       : Spin-Orbit,Spin-Spin,Magnetic field MRCI
   Miquel Garcia          : C-PCM and meta-GGA Hessian, CC/C-PCM, Gaussian charge scheme
   Yang Guo               : DLPNO-NEVPT2, F12-NEVPT2, CIM, IAO-localization
   Andreas Hansen         : Spin unrestricted coupled pair/coupled cluster methods
   Benjamin Helmich-Paris : MC-RPA, TRAH-SCF, COSX integrals
   Lee Huntington         : MR-EOM, pCC
   Robert Izsak           : Overlap fitted RIJCOSX, COSX-SCS-MP3, EOM
   Marcus Kettner         : VPT2
   Christian Kollmar      : KDIIS, OOCD, Brueckner-CCSD(T), CCSD density, CASPT2, CASPT2-K
   Simone Kossmann        : Meta GGA functionals, TD-DFT gradient, OOMP2, MP2 Hessian
   Martin Krupicka        : Initial AUTO-CI
   Lucas Lang             : DCDCAS
   Marvin Lechner         : AUTO-CI (C++ implementation), FIC-MRCC
   Dagmar Lenk            : GEPOL surface, SMD
   Dimitrios Liakos       : Extrapolation schemes; Compound Job, initial MDCI parallelization
   Dimitrios Manganas     : Further ROCIS development; embedding schemes
   Dimitrios Pantazis     : SARC Basis sets
   Anastasios Papadopoulos: AUTO-CI, single reference methods and gradients
   Taras Petrenko         : DFT Hessian,TD-DFT gradient, ASA, ECA, R-Raman, ABS, FL, XAS/XES, NRVS
   Peter Pinski           : DLPNO-MP2, DLPNO-MP2 Gradient
   Christoph Reimann      : Effective Core Potentials
   Marius Retegan         : Local ZFS, SOC
   Christoph Riplinger    : Optimizer, TS searches, QM/MM, DLPNO-CCSD(T), (RO)-DLPNO pert. Triples
   Tobias Risthaus        : Range-separated hybrids, TD-DFT gradient, RPA, STAB
   Michael Roemelt        : Original ROCIS implementation
   Masaaki Saitow         : Open-shell DLPNO-CCSD energy and density
   Barbara Sandhoefer     : DKH picture change effects
   Avijit Sen             : IP-ROCIS
   Kantharuban Sivalingam : CASSCF convergence, NEVPT2, FIC-MRCI
   Bernardo de Souza      : ESD, SOC TD-DFT
   Georgi Stoychev        : AutoAux, RI-MP2 NMR, DLPNO-MP2 response
   Willem Van den Heuvel  : Paramagnetic NMR
   Boris Wezisla          : Elementary symmetry handling
   Frank Wennmohs         : Technical directorship


 We gratefully acknowledge several colleagues who have allowed us to
 interface, adapt or use parts of their codes:
   Stefan Grimme, W. Hujo, H. Kruse, P. Pracht,  : VdW corrections, initial TS optimization,
                  C. Bannwarth, S. Ehlert          DFT functionals, gCP, sTDA/sTD-DF
   Ed Valeev, F. Pavosevic, A. Kumar             : LibInt (2-el integral package), F12 methods
   Garnet Chan, S. Sharma, J. Yang, R. Olivares  : DMRG
   Ulf Ekstrom                                   : XCFun DFT Library
   Mihaly Kallay                                 : mrcc  (arbitrary order and MRCC methods)
   Jiri Pittner, Ondrej Demel                    : Mk-CCSD
   Frank Weinhold                                : gennbo (NPA and NBO analysis)
   Christopher J. Cramer and Donald G. Truhlar   : smd solvation model
   Lars Goerigk                                  : TD-DFT with DH, B97 family of functionals
   V. Asgeirsson, H. Jonsson                     : NEB implementation
   FAccTs GmbH                                   : IRC, NEB, NEB-TS, DLPNO-Multilevel, CI-OPT
                                                   MM, QMMM, 2- and 3-layer-ONIOM, Crystal-QMMM,
                                                   LR-CPCM, SF, NACMEs, symmetry and pop. for TD-DFT,
                                                   nearIR, NL-DFT gradient (VV10), updates on ESD,
                                                   ML-optimized integration grids
   S Lehtola, MJT Oliveira, MAL Marques          : LibXC Library
   Liviu Ungur et al                             : ANISO software


 Your calculation uses the libint2 library for the computation of 2-el integrals
 For citations please refer to: http://libint.valeyev.net

 Your ORCA version has been built with support for libXC version: 5.1.0
 For citations please refer to: https://tddft.org/programs/libxc/

 This ORCA versions uses:
   CBLAS   interface :  Fast vector & matrix operations
   LAPACKE interface :  Fast linear algebra routines
   SCALAPACK package :  Parallel linear algebra routines
   Shared memory     :  Shared parallel matrices
   BLAS/LAPACK       :  OpenBLAS 0.3.15  USE64BITINT DYNAMIC_ARCH NO_AFFINITY Zen SINGLE_THREADED
        Core in use  :  Zen
   Copyright (c) 2011-2014, The OpenBLAS Project


Your calculation utilizes the SMD solvation module
Please cite in your paper:
A.V. Marenich, C.J. Cramer, D.G. Truhlar J. Phys. Chem. B, 113, (2009), 6378 

XCFun DFT library Copyright 2009-2010 Ulf Ekstrom and contributors.
See http://admol.org/xcfun for more information.
This is free software; see the source code for copying conditions.
There is ABSOLUTELY NO WARRANTY; not even for MERCHANTABILITY or FITNESS FOR A PARTICULAR PURPOSE.
For details see the documentation.
Scientific users of this library should cite U. Ekstrom, L. Visscher, R. Bast, A. J. Thorvaldsen and K. Ruud;
J.Chem.Theor.Comp. 2010, DOI: 10.1021/ct100117s
XCFun Version 0.99 

================================================================================

----- Orbital basis set information -----
Your calculation utilizes the basis: ZORA-def2-SVP 
   Exponents from def2-SVP [F. Weigend and R. Ahlrichs, Phys. Chem. Chem. Phys. 7, 3297 (2005)],
   recontracted for ZORA by D. A. Pantazis.

The basis set includes element-specific modifications.

Your calculation utilizes the basis: SARC-ZORA-TZVP 
   Rb-Xe:  J. D. Rolfes, F. Neese and D. A. Pantazis, J. Comput. Chem. 41, 1842 (2020).
   La-Lu:  D. A. Pantazis and F. Neese, J. Chem. Theory Comput. 5, 2229 (2009).
   Hf-Hg:  D. A. Pantazis, X. Y. Chen, C. R. Landis and F. Neese, J. Chem. Theory Comput. 4, 908 (2008).
   Tl-Rn:  D. A. Pantazis and F. Neese, Theor. Chem. Acc. 131, 1292 (2012).
   Ac-Lr:  D. A. Pantazis and F. Neese, J. Chem. Theory Comput. 7, 677 (2011).

----- AuxJ basis set information -----
Your calculation utilizes the auxiliary basis: SARC/J 
   decontracted def2/J up to Kr:
   F. Weigend, Phys. Chem. Chem. Phys. 8, 1057 (2006)
   and SARC auxiliary basis sets beyond Kr:
   D. A. Pantazis and F. Neese, J. Chem. Theory Comput. 5, 2229 (2009).
   D. A. Pantazis, X. Y. Chen, C. R. Landis and F. Neese, J. Chem. Theory Comput. 4, 908 (2008).
   D. A. Pantazis and F. Neese, Theor. Chem. Acc. 131, 1292 (2012).
   D. A. Pantazis and F. Neese, J. Chem. Theory Comput. 7, 677 (2011).

================================================================================
                                        WARNINGS
                       Please study these warnings very carefully!
================================================================================

INFO   : Checking CIS options ...

INFO   : Since TDDFT/CIS Mode == RPA_AOINTS, the TAMMDANCOFF/TDA keyword is ignored. 


WARNING: (CIS/TDDFT): Spin-orbit needs TRIPLETS set to TRUE
  ===> : ajusting flags

WARNING: CIS/ROCIS methods need fully converged wavefunctions
  ===> : Setting SCFConvForced true
         You can overwrite this default with %scf ConvForced false 


INFO   : the flag for use of the SHARK integral package has been found!

================================================================================
                                       INPUT FILE
================================================================================
NAME = Ru-PRC_2_SOC-M06L_def2SVP.inp
|  1> %maxcore 6000
|  2> %pal
|  3>  nprocs 8
|  4> end
|  5> ! M06L ZORA ZORA-DEF2-SVP SARC/J CPCM RI-SOMF(1X) DEFGRID3
|  6> 
|  7> %TDDFT 
|  8>     NROOTS    60
|  9>     TDA       FALSE
| 10>     DOSOC     TRUE
| 11> END
| 12> 
| 13> %CPCM
| 14>     SMD		TRUE
| 15>     SMDsolvent	"DMF"
| 16> END
| 17> 
| 18> %BASIS
| 19>     NEWGTO  RU      "SARC-ZORA-TZVP" END
| 20>     NEWGTO  IR      "SARC-ZORA-TZVP" END
| 21> END
| 22> 
| 23> * xyz 2 1
| 24> C                  -1.67762600   -2.06917600    0.26663300
| 25> C                  -2.41976900   -0.35506600   -1.10525600
| 26> C                  -3.64054900   -1.01297700   -1.38146000
| 27> C                  -3.83977500   -2.26012400   -0.78603600
| 28> C                  -2.86017500   -2.81414300    0.05348900
| 29> C                  -0.64603500   -2.57041500    1.10931800
| 30> C                   1.44308500   -2.22864100    2.05449600
| 31> C                   1.37107100   -3.45610900    2.72594600
| 32> C                   0.25377000   -4.25800100    2.57879900
| 33> C                  -0.79899200   -3.82255400    1.74914100
| 34> H                  -2.20348800    0.61917600   -1.54629500
| 35> H                  -4.75670000   -2.82685600   -0.95693900
| 36> H                   2.31664400   -1.58092100    2.16092700
| 37> H                   2.20519900   -3.76067100    3.35881600
| 38> H                   0.17640700   -5.21804400    3.09326600
| 39> C                  -0.67339700    2.70837900   -0.05312000
| 40> C                   0.28364100    2.10199200   -2.07678600
| 41> C                  -0.06962300    3.33263900   -2.64593400
| 42> C                  -0.74150200    4.27374300   -1.88863600
| 43> C                  -1.06092100    3.97552600   -0.54795300
| 44> C                  -0.98229700    2.33684100    1.28747800
| 45> C                  -0.86513200    0.71554500    2.94084800
| 46> C                  -1.52816500    1.55169900    3.84900700
| 47> C                  -1.93001300    2.81414400    3.45518900
| 48> C                  -1.66090300    3.24064700    2.13824800
| 49> H                   0.81430900    1.34564600   -2.66004600
| 50> H                   0.19565500    3.52842800   -3.68531800
| 51> H                  -1.02608800    5.23987000   -2.31036100
| 52> H                  -0.54138600   -0.28590700    3.23440100
| 53> H                  -1.72009400    1.18704000    4.85864000
| 54> H                  -2.45085000    3.48178900    4.14451300
| 55> C                   3.23412000    0.19880600   -0.22862400
| 56> C                   2.68339500    1.39646100    1.67891500
| 57> C                   4.02351900    1.75439600    1.87621500
| 58> C                   4.99043500    1.31827600    0.98984900
| 59> C                   4.60716500    0.51520700   -0.10406100
| 60> C                   2.77992400   -0.61361700   -1.30748600
| 61> C                   0.98382300   -1.63523300   -2.36009000
| 62> C                   1.82485800   -2.15757100   -3.35148700
| 63> C                   3.18147600   -1.89533500   -3.31194000
| 64> C                   3.69765300   -1.10225100   -2.26646500
| 65> H                   1.90544100    1.73094300    2.36951600
| 66> H                   6.04067700    1.58549700    1.12343700
| 67> H                  -0.09133400   -1.82982300   -2.37615000
| 68> H                   3.85546200   -2.29168000   -4.07407900
| 69> N                   2.29071800    0.63576100    0.65528400
| 70> N                   0.46103900   -1.78766600    1.26545600
| 71> N                  -0.59313200    1.09239100    1.69009600
| 72> N                  -1.47103100   -0.85747600   -0.31699100
| 73> N                  -0.01102000    1.78870800   -0.81332900
| 74> N                   1.44226000   -0.87808700   -1.36144800
| 75> Ru                  0.36080900   -0.00017200    0.18929900
| 76> C                   5.51802000    0.00759000   -1.08472300
| 77> C                   5.08178500   -0.76686700   -2.12215900
| 78> C                  -2.00317200   -4.56431000    1.51982500
| 79> C                  -2.99008000   -4.08297000    0.70778800
| 80> C                  -2.03492300    4.52072000    1.61867400
| 81> C                  -1.75019700    4.87194600    0.32958100
| 82> H                   5.78528600   -1.14774300   -2.86536700
| 83> H                   6.57648500    0.25619200   -0.98346900
| 84> H                  -3.90321000   -4.65855900    0.54243700
| 85> H                  -2.11475400   -5.53118100    2.01503300
| 86> H                  -2.04404200    5.84954600   -0.05820200
| 87> H                  -2.55962000    5.21304700    2.28029100
| 88> H                   4.28251500    2.37741300    2.73292400
| 89> H                   1.39050900   -2.76799900   -4.14390000
| 90> C                  -4.63221300   -0.36219000   -2.26657700
| 91> C                  -5.80902100   -0.94423200   -2.56200300
| 92> H                  -6.10834500   -1.92100400   -2.17663300
| 93> H                  -6.52586300   -0.44316400   -3.21675100
| 94> C                  -4.28434800    0.98137800   -2.82737800
| 95> H                  -4.09873700    1.72172300   -2.03314000
| 96> H                  -3.36834600    0.94781100   -3.43802900
| 97> H                  -5.09264700    1.36665600   -3.45976600
| 98> *
| 99> 
|100>                          ****END OF INPUT****
================================================================================

                       ****************************
                       * Single Point Calculation *
                       ****************************

---------------------------------
CARTESIAN COORDINATES (ANGSTROEM)
---------------------------------
  C     -1.677626   -2.069176    0.266633
  C     -2.419769   -0.355066   -1.105256
  C     -3.640549   -1.012977   -1.381460
  C     -3.839775   -2.260124   -0.786036
  C     -2.860175   -2.814143    0.053489
  C     -0.646035   -2.570415    1.109318
  C      1.443085   -2.228641    2.054496
  C      1.371071   -3.456109    2.725946
  C      0.253770   -4.258001    2.578799
  C     -0.798992   -3.822554    1.749141
  H     -2.203488    0.619176   -1.546295
  H     -4.756700   -2.826856   -0.956939
  H      2.316644   -1.580921    2.160927
  H      2.205199   -3.760671    3.358816
  H      0.176407   -5.218044    3.093266
  C     -0.673397    2.708379   -0.053120
  C      0.283641    2.101992   -2.076786
  C     -0.069623    3.332639   -2.645934
  C     -0.741502    4.273743   -1.888636
  C     -1.060921    3.975526   -0.547953
  C     -0.982297    2.336841    1.287478
  C     -0.865132    0.715545    2.940848
  C     -1.528165    1.551699    3.849007
  C     -1.930013    2.814144    3.455189
  C     -1.660903    3.240647    2.138248
  H      0.814309    1.345646   -2.660046
  H      0.195655    3.528428   -3.685318
  H     -1.026088    5.239870   -2.310361
  H     -0.541386   -0.285907    3.234401
  H     -1.720094    1.187040    4.858640
  H     -2.450850    3.481789    4.144513
  C      3.234120    0.198806   -0.228624
  C      2.683395    1.396461    1.678915
  C      4.023519    1.754396    1.876215
  C      4.990435    1.318276    0.989849
  C      4.607165    0.515207   -0.104061
  C      2.779924   -0.613617   -1.307486
  C      0.983823   -1.635233   -2.360090
  C      1.824858   -2.157571   -3.351487
  C      3.181476   -1.895335   -3.311940
  C      3.697653   -1.102251   -2.266465
  H      1.905441    1.730943    2.369516
  H      6.040677    1.585497    1.123437
  H     -0.091334   -1.829823   -2.376150
  H      3.855462   -2.291680   -4.074079
  N      2.290718    0.635761    0.655284
  N      0.461039   -1.787666    1.265456
  N     -0.593132    1.092391    1.690096
  N     -1.471031   -0.857476   -0.316991
  N     -0.011020    1.788708   -0.813329
  N      1.442260   -0.878087   -1.361448
  Ru     0.360809   -0.000172    0.189299
  C      5.518020    0.007590   -1.084723
  C      5.081785   -0.766867   -2.122159
  C     -2.003172   -4.564310    1.519825
  C     -2.990080   -4.082970    0.707788
  C     -2.034923    4.520720    1.618674
  C     -1.750197    4.871946    0.329581
  H      5.785286   -1.147743   -2.865367
  H      6.576485    0.256192   -0.983469
  H     -3.903210   -4.658559    0.542437
  H     -2.114754   -5.531181    2.015033
  H     -2.044042    5.849546   -0.058202
  H     -2.559620    5.213047    2.280291
  H      4.282515    2.377413    2.732924
  H      1.390509   -2.767999   -4.143900
  C     -4.632213   -0.362190   -2.266577
  C     -5.809021   -0.944232   -2.562003
  H     -6.108345   -1.921004   -2.176633
  H     -6.525863   -0.443164   -3.216751
  C     -4.284348    0.981378   -2.827378
  H     -4.098737    1.721723   -2.033140
  H     -3.368346    0.947811   -3.438029
  H     -5.092647    1.366656   -3.459766

----------------------------
CARTESIAN COORDINATES (A.U.)
----------------------------
  NO LB      ZA    FRAG     MASS         X           Y           Z
   0 C     6.0000    0    12.011   -3.170254   -3.910176    0.503863
   1 C     6.0000    0    12.011   -4.572701   -0.670977   -2.088631
   2 C     6.0000    0    12.011   -6.879641   -1.914249   -2.610581
   3 C     6.0000    0    12.011   -7.256123   -4.271015   -1.485393
   4 C     6.0000    0    12.011   -5.404947   -5.317960    0.101080
   5 C     6.0000    0    12.011   -1.220829   -4.857380    2.096307
   6 C     6.0000    0    12.011    2.727035   -4.211521    3.882435
   7 C     6.0000    0    12.011    2.590949   -6.531099    5.151291
   8 C     6.0000    0    12.011    0.479556   -8.046456    4.873224
   9 C     6.0000    0    12.011   -1.509876   -7.223580    3.305397
  10 H     1.0000    0     1.008   -4.163989    1.170073   -2.922074
  11 H     1.0000    0     1.008   -8.988860   -5.341984   -1.808353
  12 H     1.0000    0     1.008    4.377823   -2.987508    4.083560
  13 H     1.0000    0     1.008    4.167222   -7.106638    6.347242
  14 H     1.0000    0     1.008    0.333361   -9.860674    5.845426
  15 C     6.0000    0    12.011   -1.272536    5.118095   -0.100382
  16 C     6.0000    0    12.011    0.536004    3.972189   -3.924557
  17 C     6.0000    0    12.011   -0.131568    6.297775   -5.000091
  18 C     6.0000    0    12.011   -1.401236    8.076204   -3.569005
  19 C     6.0000    0    12.011   -2.004850    7.512655   -1.035481
  20 C     6.0000    0    12.011   -1.856272    4.415990    2.432981
  21 C     6.0000    0    12.011   -1.634863    1.352184    5.557397
  22 C     6.0000    0    12.011   -2.887813    2.932286    7.273569
  23 C     6.0000    0    12.011   -3.647196    5.317961    6.529361
  24 C     6.0000    0    12.011   -3.138652    6.123935    4.040703
  25 H     1.0000    0     1.008    1.538821    2.542902   -5.026758
  26 H     1.0000    0     1.008    0.369734    6.667763   -6.964242
  27 H     1.0000    0     1.008   -1.939025    9.901919   -4.365950
  28 H     1.0000    0     1.008   -1.023071   -0.540286    6.112132
  29 H     1.0000    0     1.008   -3.250507    2.243181    9.181499
  30 H     1.0000    0     1.008   -4.631435    6.579628    7.831995
  31 C     6.0000    0    12.011    6.111601    0.375689   -0.432037
  32 C     6.0000    0    12.011    5.070882    2.638929    3.172690
  33 C     6.0000    0    12.011    7.603349    3.315328    3.545533
  34 C     6.0000    0    12.011    9.430555    2.491181    1.870544
  35 C     6.0000    0    12.011    8.706280    0.973600   -0.196647
  36 C     6.0000    0    12.011    5.253295   -1.159568   -2.470790
  37 C     6.0000    0    12.011    1.859156   -3.090143   -4.459924
  38 C     6.0000    0    12.011    3.448482   -4.077218   -6.333393
  39 C     6.0000    0    12.011    6.012118   -3.581664   -6.258660
  40 C     6.0000    0    12.011    6.987552   -2.082953   -4.282998
  41 H     1.0000    0     1.008    3.600762    3.271008    4.477736
  42 H     1.0000    0     1.008   11.415225    2.996155    2.122988
  43 H     1.0000    0     1.008   -0.172596   -3.457864   -4.490273
  44 H     1.0000    0     1.008    7.285767   -4.330648   -7.698894
  45 N     7.0000    0    14.007    4.328830    1.201414    1.238307
  46 N     7.0000    0    14.007    0.871237   -3.378199    2.391365
  47 N     7.0000    0    14.007   -1.120857    2.064320    3.193819
  48 N     7.0000    0    14.007   -2.779846   -1.620395   -0.599026
  49 N     7.0000    0    14.007   -0.020825    3.380168   -1.536969
  50 N     7.0000    0    14.007    2.725476   -1.659344   -2.572764
  51 Ru   44.0000    0   101.070    0.681830   -0.000325    0.357723
  52 C     6.0000    0    12.011   10.427547    0.014343   -2.049829
  53 C     6.0000    0    12.011    9.603182   -1.449169   -4.010299
  54 C     6.0000    0    12.011   -3.785446   -8.625296    2.872053
  55 C     6.0000    0    12.011   -5.650432   -7.715695    1.337525
  56 C     6.0000    0    12.011   -3.845447    8.542923    3.058851
  57 C     6.0000    0    12.011   -3.307393    9.206644    0.622818
  58 H     1.0000    0     1.008   10.932606   -2.168920   -5.414759
  59 H     1.0000    0     1.008   12.427756    0.484133   -1.858487
  60 H     1.0000    0     1.008   -7.375998   -8.803401    1.025057
  61 H     1.0000    0     1.008   -3.996306  -10.452417    3.807861
  62 H     1.0000    0     1.008   -3.862680   11.054040   -0.109986
  63 H     1.0000    0     1.008   -4.836981    9.851231    4.309125
  64 H     1.0000    0     1.008    8.092781    4.492659    5.164478
  65 H     1.0000    0     1.008    2.627681   -5.230760   -7.830836
  66 C     6.0000    0    12.011   -8.753614   -0.684440   -4.283210
  67 C     6.0000    0    12.011  -10.977459   -1.784340   -4.841484
  68 H     1.0000    0     1.008  -11.543099   -3.630171   -4.113240
  69 H     1.0000    0     1.008  -12.332094   -0.837459   -6.078778
  70 C     6.0000    0    12.011   -8.096244    1.854536   -5.342970
  71 H     1.0000    0     1.008   -7.745490    3.253585   -3.842078
  72 H     1.0000    0     1.008   -6.365251    1.791103   -6.496933
  73 H     1.0000    0     1.008   -9.623708    2.582606   -6.538010

--------------------------------
INTERNAL COORDINATES (ANGSTROEM)
--------------------------------
 C      0   0   0     0.000000000000     0.00000000     0.00000000
 C      1   0   0     2.317548004437     0.00000000     0.00000000
 C      2   1   0     1.414015325920    92.74923135     0.00000000
 C      3   2   1     1.396279477204   117.09525529   359.68700230
 C      4   3   2     1.404049656524   120.52216088     0.37070214
 C      1   2   3     1.423214156628   147.46841042   180.42545254
 C      6   1   2     2.318316909562   147.42111914     0.22254936
 C      7   6   1     1.400967098015    91.14104304   179.29531090
 C      8   7   6     1.383128534835   119.90094751     0.00000000
 C      9   8   7     1.409345349947   119.13821751     0.04560973
 H      2   1   3     1.091073024617   146.74413636   180.11454438
 H      4   3   2     1.091395643595   121.12511811   180.20541753
 H      7   6   1     1.092691211021   147.94286947   359.56987729
 H      8   7   6     1.090436595648   118.91790085   180.00377034
 H      9   8   7     1.091945003060   121.12064140   180.03926934
 C     11   2   1     2.989233885817   121.57535374   324.54139976
 C     16  11   2     2.319235004645    65.96018789   122.17786492
 C     17  16  11     1.401148435466    91.18899035   108.54203246
 C     18  17  16     1.382243969153   119.86817180     0.14656506
 C     19  18  17     1.410103819986   119.14489980     0.00000000
 C     16  11   2     1.425013225570   100.18027309   333.22062438
 C     21  16  11     2.318611807470   147.37356457    61.21816906
 C     22  21  16     1.401256236413    91.20254301   179.56550587
 C     23  22  21     1.382151153186   119.86391739     0.20180824
 C     24  23  22     1.410198070694   119.13400795   359.88005914
 H     17  16  11     1.092639018862   147.90642084   288.84450987
 H     18  17  16     1.090424160252   118.91782950   180.04970834
 H     19  18  17     1.091898597467   121.16534808   179.93582890
 H     22  21  16     1.092653167583   147.93415818   359.76816512
 H     23  22  21     1.090491504786   118.93289632   179.99870390
 H     24  23  22     1.091873895452   121.15214790   179.80693376
 C     13   7   6     3.117554231558   119.93495636   327.07108084
 C     32  13   7     2.318702344237    66.07138084   120.23191323
 C     33  32  13     1.401062842845    91.18175524   111.01793635
 C     34  33  32     1.382306728412   119.87898734     0.04977530
 C     35  34  33     1.410125809905   119.14278032     0.00000000
 C     32  13   7     1.424874854992    99.26767106   330.84687821
 C     37  32  13     2.318976764539   147.32624103    59.91574273
 C     38  37  32     1.401087031229    91.17441985   179.62327924
 C     39  38  37     1.382296669615   119.87783635     0.00000000
 C     40  39  38     1.410120172897   119.15412597     0.05306379
 H     33  32  13     1.092712393835   147.90211257   291.19476451
 H     35  34  33     1.091907081738   121.14069137   179.95426840
 H     38  37  32     1.092742314706   147.90627168   359.86371029
 H     40  39  38     1.091880186899   121.12927986   180.02209112
 N     33  32  13     1.334421275494    31.17101195   291.20247980
 N      7   6   1     1.334712485272    31.20216978   359.53419286
 N     22  21  16     1.334307862984    31.17176112   359.76329543
 N      2   1   3     1.331871356764    30.96755589   180.24414953
 N     17  16  11     1.334651849894    31.15797407   288.86671057
 N     38  37  32     1.334436357587    31.15928528   359.91162590
 Ru    50  17  16     2.084133240948   128.13401245   177.90444282
 C     36  35  34     1.431443260475   124.08785856   179.93670254
 C     53  36  35     1.366147164170   121.20413643   179.97850746
 C     10   9   8     1.432772579230   124.19912520   180.01282239
 C     55  10   9     1.365679202973   121.33578621   179.68625935
 C     25  24  23     1.431235475806   124.03142118   179.67403996
 C     57  25  24     1.366085414899   121.20136101   180.31379213
 H     54  53  36     1.091942450700   120.58868667   179.92047068
 H     53  36  35     1.091972290466   118.19896844   359.94482096
 H     56  55  10     1.091993611255   120.56663442   180.04901736
 H     55  10   9     1.092026115360   118.14281070   359.77331374
 H     58  57  25     1.091980906021   120.61002049   179.72411827
 H     57  25  24     1.091952687357   118.20812751     0.10755995
 H     34  33  32     1.090495034829   118.93131910   179.98518643
 H     39  38  37     1.090504360172   118.93169566   179.96350910
 C      3   2   1     1.479984226927   119.38718594   179.50112316
 C     67   3   2     1.345706684276   121.80680993   179.99659367
 H     68  67   3     1.091873817737   123.31020211   359.92803829
 H     68  67   3     1.092532167532   120.46270813   179.89613270
 C     67   3   2     1.496891041609   117.58282303   359.82843386
 H     71  67   3     1.101533550551   111.85699268   300.77911853
 H     71  67   3     1.101399587477   111.93983888    59.91883403
 H     71  67   3     1.096221233707   111.11440123   180.38224488

---------------------------
INTERNAL COORDINATES (A.U.)
---------------------------
 C      0   0   0     0.000000000000     0.00000000     0.00000000
 C      1   0   0     4.379531030602     0.00000000     0.00000000
 C      2   1   0     2.672101715156    92.74923135     0.00000000
 C      3   2   1     2.638585818330   117.09525529   359.68700230
 C      4   3   2     2.653269329257   120.52216088     0.37070214
 C      1   2   3     2.689484985947   147.46841042   180.42545254
 C      6   1   2     4.380984050710   147.42111914     0.22254936
 C      7   6   1     2.647444137882    91.14104304   179.29531090
 C      8   7   6     2.613734138849   119.90094751     0.00000000
 C      9   8   7     2.663276739515   119.13821751     0.04560973
 H      2   1   3     2.061829208634   146.74413636   180.11454438
 H      4   3   2     2.062438870149   121.12511811   180.20541753
 H      7   6   1     2.064887137772   147.94286947   359.56987729
 H      8   7   6     2.060626532180   118.91790085   180.00377034
 H      9   8   7     2.063477009087   121.12064140   180.03926934
 C     11   2   1     5.648833394431   121.57535374   324.54139976
 C     16  11   2     4.382718998982    65.96018789   122.17786492
 C     17  16  11     2.647786816003    91.18899035   108.54203246
 C     18  17  16     2.612062551964   119.86817180     0.14656506
 C     19  18  17     2.664710040170   119.14489980     0.00000000
 C     16  11   2     2.692884733542   100.18027309   333.22062438
 C     21  16  11     4.381541326995   147.37356457    61.21816906
 C     22  21  16     2.647990530270    91.20254301   179.56550587
 C     23  22  21     2.611887155205   119.86391739     0.20180824
 C     24  23  22     2.664888148196   119.13400795   359.88005914
 H     17  16  11     2.064788508886   147.90642084   288.84450987
 H     18  17  16     2.060603032687   118.91782950   180.04970834
 H     19  18  17     2.063389315225   121.16534808   179.93582890
 H     22  21  16     2.064815246093   147.93415818   359.76816512
 H     23  22  21     2.060730295414   118.93289632   179.99870390
 H     24  23  22     2.063342635182   121.15214790   179.80693376
 C     13   7   6     5.891323705292   119.93495636   327.07108084
 C     32  13   7     4.381712416689    66.07138084   120.23191323
 C     33  32  13     2.647625069390    91.18175524   111.01793635
 C     34  33  32     2.612181149775   119.87898734     0.04977530
 C     35  34  33     2.664751595095   119.14278032     0.00000000
 C     32  13   7     2.692623251046    99.26767106   330.84687821
 C     37  32  13     4.382230995906   147.32624103    59.91574273
 C     38  37  32     2.647670778812    91.17441985   179.62327924
 C     39  38  37     2.612162141404   119.87783635     0.00000000
 C     40  39  38     2.664740942692   119.15412597     0.05306379
 H     33  32  13     2.064927167490   147.90211257   291.19476451
 H     35  34  33     2.063405348173   121.14069137   179.95426840
 H     38  37  32     2.064983709742   147.90627168   359.86371029
 H     40  39  38     2.063354524293   121.12927986   180.02209112
 N     33  32  13     2.521690757961    31.17101195   291.20247980
 N      7   6   1     2.522241064690    31.20216978   359.53419286
 N     22  21  16     2.521476439377    31.17176112   359.76329543
 N      2   1   3     2.516872109899    30.96755589   180.24414953
 N     17  16  11     2.522126480431    31.15797407   288.86671057
 N     38  37  32     2.521719258986    31.15928528   359.91162590
 Ru    50  17  16     3.938441051994   128.13401245   177.90444282
 C     36  35  34     2.705035738544   124.08785856   179.93670254
 C     53  36  35     2.581643998915   121.20413643   179.97850746
 C     10   9   8     2.707547786936   124.19912520   180.01282239
 C     55  10   9     2.580759680411   121.33578621   179.68625935
 C     25  24  23     2.704643082425   124.03142118   179.67403996
 C     57  25  24     2.581527309704   121.20136101   180.31379213
 H     54  53  36     2.063472185826   120.58868667   179.92047068
 H     53  36  35     2.063528574811   118.19896844   359.94482096
 H     56  55  10     2.063568865264   120.56663442   180.04901736
 H     55  10   9     2.063630289121   118.14281070   359.77331374
 H     58  57  25     2.063544855851   120.61002049   179.72411827
 H     57  25  24     2.063491530305   118.20812751     0.10755995
 H     34  33  32     2.060736966227   118.93131910   179.98518643
 H     39  38  37     2.060754588572   118.93169566   179.96350910
 C      3   2   1     2.796764871416   119.38718594   179.50112316
 C     67   3   2     2.543017089868   121.80680993   179.99659367
 H     68  67   3     2.063342488322   123.31020211   359.92803829
 H     68  67   3     2.064586589135   120.46270813   179.89613270
 C     67   3   2     2.828714120962   117.58282303   359.82843386
 H     71  67   3     2.081596737868   111.85699268   300.77911853
 H     71  67   3     2.081343584345   111.93983888    59.91883403
 H     71  67   3     2.071557913895   111.11440123   180.38224488

---------------------
BASIS SET INFORMATION
---------------------
There are 4 groups of distinct atoms

 Group   1 Type C   : 7s4p1d contracted to 3s2p1d pattern {511/31/1}
 Group   2 Type H   : 4s1p contracted to 2s1p pattern {31/1}
 Group   3 Type N   : 7s4p1d contracted to 3s2p1d pattern {511/31/1}
 Group   4 Type Ru  : 22s15p9d1f contracted to 15s10p5d1f pattern {811111111111111/6111111111/51111/1}

Atom   0C    basis set group =>   1
Atom   1C    basis set group =>   1
Atom   2C    basis set group =>   1
Atom   3C    basis set group =>   1
Atom   4C    basis set group =>   1
Atom   5C    basis set group =>   1
Atom   6C    basis set group =>   1
Atom   7C    basis set group =>   1
Atom   8C    basis set group =>   1
Atom   9C    basis set group =>   1
Atom  10H    basis set group =>   2
Atom  11H    basis set group =>   2
Atom  12H    basis set group =>   2
Atom  13H    basis set group =>   2
Atom  14H    basis set group =>   2
Atom  15C    basis set group =>   1
Atom  16C    basis set group =>   1
Atom  17C    basis set group =>   1
Atom  18C    basis set group =>   1
Atom  19C    basis set group =>   1
Atom  20C    basis set group =>   1
Atom  21C    basis set group =>   1
Atom  22C    basis set group =>   1
Atom  23C    basis set group =>   1
Atom  24C    basis set group =>   1
Atom  25H    basis set group =>   2
Atom  26H    basis set group =>   2
Atom  27H    basis set group =>   2
Atom  28H    basis set group =>   2
Atom  29H    basis set group =>   2
Atom  30H    basis set group =>   2
Atom  31C    basis set group =>   1
Atom  32C    basis set group =>   1
Atom  33C    basis set group =>   1
Atom  34C    basis set group =>   1
Atom  35C    basis set group =>   1
Atom  36C    basis set group =>   1
Atom  37C    basis set group =>   1
Atom  38C    basis set group =>   1
Atom  39C    basis set group =>   1
Atom  40C    basis set group =>   1
Atom  41H    basis set group =>   2
Atom  42H    basis set group =>   2
Atom  43H    basis set group =>   2
Atom  44H    basis set group =>   2
Atom  45N    basis set group =>   3
Atom  46N    basis set group =>   3
Atom  47N    basis set group =>   3
Atom  48N    basis set group =>   3
Atom  49N    basis set group =>   3
Atom  50N    basis set group =>   3
Atom  51Ru   basis set group =>   4
Atom  52C    basis set group =>   1
Atom  53C    basis set group =>   1
Atom  54C    basis set group =>   1
Atom  55C    basis set group =>   1
Atom  56C    basis set group =>   1
Atom  57C    basis set group =>   1
Atom  58H    basis set group =>   2
Atom  59H    basis set group =>   2
Atom  60H    basis set group =>   2
Atom  61H    basis set group =>   2
Atom  62H    basis set group =>   2
Atom  63H    basis set group =>   2
Atom  64H    basis set group =>   2
Atom  65H    basis set group =>   2
Atom  66C    basis set group =>   1
Atom  67C    basis set group =>   1
Atom  68H    basis set group =>   2
Atom  69H    basis set group =>   2
Atom  70C    basis set group =>   1
Atom  71H    basis set group =>   2
Atom  72H    basis set group =>   2
Atom  73H    basis set group =>   2
---------------------------------
AUXILIARY/J BASIS SET INFORMATION
---------------------------------
There are 4 groups of distinct atoms

 Group   1 Type C   : 12s5p4d2f1g contracted to 12s5p4d2f1g pattern {111111111111/11111/1111/11/1}
 Group   2 Type H   : 5s2p1d contracted to 5s2p1d pattern {11111/11/1}
 Group   3 Type N   : 12s5p4d2f1g contracted to 12s5p4d2f1g pattern {111111111111/11111/1111/11/1}
 Group   4 Type Ru  : 23s7p6d3f4g contracted to 23s7p6d3f4g pattern {11111111111111111111111/1111111/111111/111/1111}

Atom   0C    basis set group =>   1
Atom   1C    basis set group =>   1
Atom   2C    basis set group =>   1
Atom   3C    basis set group =>   1
Atom   4C    basis set group =>   1
Atom   5C    basis set group =>   1
Atom   6C    basis set group =>   1
Atom   7C    basis set group =>   1
Atom   8C    basis set group =>   1
Atom   9C    basis set group =>   1
Atom  10H    basis set group =>   2
Atom  11H    basis set group =>   2
Atom  12H    basis set group =>   2
Atom  13H    basis set group =>   2
Atom  14H    basis set group =>   2
Atom  15C    basis set group =>   1
Atom  16C    basis set group =>   1
Atom  17C    basis set group =>   1
Atom  18C    basis set group =>   1
Atom  19C    basis set group =>   1
Atom  20C    basis set group =>   1
Atom  21C    basis set group =>   1
Atom  22C    basis set group =>   1
Atom  23C    basis set group =>   1
Atom  24C    basis set group =>   1
Atom  25H    basis set group =>   2
Atom  26H    basis set group =>   2
Atom  27H    basis set group =>   2
Atom  28H    basis set group =>   2
Atom  29H    basis set group =>   2
Atom  30H    basis set group =>   2
Atom  31C    basis set group =>   1
Atom  32C    basis set group =>   1
Atom  33C    basis set group =>   1
Atom  34C    basis set group =>   1
Atom  35C    basis set group =>   1
Atom  36C    basis set group =>   1
Atom  37C    basis set group =>   1
Atom  38C    basis set group =>   1
Atom  39C    basis set group =>   1
Atom  40C    basis set group =>   1
Atom  41H    basis set group =>   2
Atom  42H    basis set group =>   2
Atom  43H    basis set group =>   2
Atom  44H    basis set group =>   2
Atom  45N    basis set group =>   3
Atom  46N    basis set group =>   3
Atom  47N    basis set group =>   3
Atom  48N    basis set group =>   3
Atom  49N    basis set group =>   3
Atom  50N    basis set group =>   3
Atom  51Ru   basis set group =>   4
Atom  52C    basis set group =>   1
Atom  53C    basis set group =>   1
Atom  54C    basis set group =>   1
Atom  55C    basis set group =>   1
Atom  56C    basis set group =>   1
Atom  57C    basis set group =>   1
Atom  58H    basis set group =>   2
Atom  59H    basis set group =>   2
Atom  60H    basis set group =>   2
Atom  61H    basis set group =>   2
Atom  62H    basis set group =>   2
Atom  63H    basis set group =>   2
Atom  64H    basis set group =>   2
Atom  65H    basis set group =>   2
Atom  66C    basis set group =>   1
Atom  67C    basis set group =>   1
Atom  68H    basis set group =>   2
Atom  69H    basis set group =>   2
Atom  70C    basis set group =>   1
Atom  71H    basis set group =>   2
Atom  72H    basis set group =>   2
Atom  73H    basis set group =>   2


           ************************************************************
           *        Program running with 8 parallel MPI-processes     *
           *              working on a common directory               *
           ************************************************************
------------------------------------------------------------------------------
                           ORCA GTO INTEGRAL CALCULATION
                           -- RI-GTO INTEGRALS CHOSEN --
------------------------------------------------------------------------------
------------------------------------------------------------------------------
                   ___                                                        
                  /   \      - P O W E R E D   B Y -                         
                 /     \                                                     
                 |  |  |   _    _      __       _____    __    __             
                 |  |  |  | |  | |    /  \     |  _  \  |  |  /  |          
                  \  \/   | |  | |   /    \    | | | |  |  | /  /          
                 / \  \   | |__| |  /  /\  \   | |_| |  |  |/  /          
                |  |  |   |  __  | /  /__\  \  |    /   |      \           
                |  |  |   | |  | | |   __   |  |    \   |  |\   \          
                \     /   | |  | | |  |  |  |  | |\  \  |  | \   \       
                 \___/    |_|  |_| |__|  |__|  |_| \__\ |__|  \__/        
                                                                              
                      - O R C A' S   B I G   F R I E N D -                    
                                      &                                       
                       - I N T E G R A L  F E E D E R -                       
                                                                              
 v1 FN, 2020, v2 2021                                                         
------------------------------------------------------------------------------


Reading SHARK input file Ru-PRC_2_SOC-M06L_def2SVP.SHARKINP.tmp ... ok
----------------------
SHARK INTEGRAL PACKAGE
----------------------

Number of atoms                             ...     74
Number of basis functions                   ...    847
Number of shells                            ...    385
Maximum angular momentum                    ...      3
Integral batch strategy                     ... SHARK/LIBINT Hybrid
RI-J (if used) integral strategy            ... SPLIT-RIJ (Revised 2003 algorithm where possible)
Printlevel                                  ...      1
Contraction scheme used                     ... SEGMENTED contraction
Coulomb Range Separation                    ... NOT USED
Exchange Range Separation                   ... NOT USED
Finite Nucleus Model                        ... NOT USED
Auxiliary Coulomb fitting basis             ... AVAILABLE
   # of basis functions in Aux-J            ...   3729
   # of shells in Aux-J                     ...   1347
   Maximum angular momentum in Aux-J        ...      4
Auxiliary J/K fitting basis                 ... NOT available
Auxiliary Correlation fitting basis         ... NOT available
Auxiliary 'external' fitting basis          ... NOT available
Integral threshold                          ...     1.000000e-10
Primitive cut-off                           ...     1.000000e-11
Primitive pair pre-selection threshold      ...     1.000000e-11

Calculating pre-screening integrals         ... done (  0.1 sec) Dimension = 385
Organizing shell pair data                  ... done (  0.2 sec)
Shell pair information
Total number of shell pairs                 ...     74305
Shell pairs after pre-screening             ...     45458
Total number of primitive shell pairs       ...    265350
Primitive shell pairs kept                  ...     94255
          la=0 lb=0:  13220 shell pairs
          la=1 lb=0:  16840 shell pairs
          la=1 lb=1:   5460 shell pairs
          la=2 lb=0:   5545 shell pairs
          la=2 lb=1:   3603 shell pairs
          la=2 lb=2:    513 shell pairs
          la=3 lb=0:    148 shell pairs
          la=3 lb=1:     93 shell pairs
          la=3 lb=2:     35 shell pairs
          la=3 lb=3:      1 shell pairs

Calculating one electron integrals          ... done (  0.1 sec)
Calculating RI/J V-Matrix + Cholesky decomp.... done (  0.7 sec)
Calculating Nuclear repulsion               ... done (  0.0 sec) ENN=   7262.045443058934 Eh

SHARK setup successfully completed in   1.5 seconds

Maximum memory used throughout the entire GTOINT-calculation: 95.2 MB


           ************************************************************
           *        Program running with 8 parallel MPI-processes     *
           *              working on a common directory               *
           ************************************************************
------------------------------------------------------------------------------
                          ORCA RELATIVISTIC HAMILTONIAN
------------------------------------------------------------------------------

Relativistic Method            ... ZORA(MP)
Treatment of potential         ... Van Wuellen
Nucleus model                  ... Point Nucleus
Speed of light used            ... 137.03598950000000


            *************************************************
            *         ZERO ORDER REGULAR APPROXIMATION      *
            *                     ZORA(MP)                  *
            *            Programmed by FN according to      *
            *                   C. van Wuellen              *
            *       J. Chem. Phys. (1998) vol 109, 392-399  *
            *************************************************

Terms included in model potential: +V(e,N)+V(C)+V(Xa)+V(VWN-V)
Basis function cutoff value   ... 1.000000e-10
Loading the fitted atomic densities (ZORA)   ... done
Calculating the cutoffs                      ... done
Number of fit functions                      ... 664
Setting up the integration grid ... done

Maximum memory used throughout the entire REL-calculation: 235.9 MB


           ************************************************************
           *        Program running with 8 parallel MPI-processes     *
           *              working on a common directory               *
           ************************************************************
-------------------------------------------------------------------------------
                                 ORCA SCF
-------------------------------------------------------------------------------

------------
SCF SETTINGS
------------
Hamiltonian:
 Density Functional     Method          .... DFT(GTOs)
 Exchange Functional    Exchange        .... M06L
 Correlation Functional Correlation     .... M06L
 Gradients option       PostSCFGGA      .... off
   Density functional embedding theory  .... OFF
 RI-approximation to the Coulomb term is turned on
   Number of AuxJ basis functions       .... 3729

Relativistic Settings:
 Scalar relativistic method             .... ZORA
 Speed of light used       Velit        ....       137.035989
Orbital energies will be scaled


General Settings:
 Integral files         IntName         .... Ru-PRC_2_SOC-M06L_def2SVP
 Hartree-Fock type      HFTyp           .... RHF
 Total Charge           Charge          ....    2
 Multiplicity           Mult            ....    1
 Number of Electrons    NEL             ....  346
 Basis Dimension        Dim             ....  847
 Nuclear Repulsion      ENuc            ....   7262.0454430589 Eh

Convergence Acceleration:
 DIIS                   CNVDIIS         .... on
   Start iteration      DIISMaxIt       ....    12
   Startup error        DIISStart       ....  0.200000
   # of expansion vecs  DIISMaxEq       ....     5
   Bias factor          DIISBfac        ....   1.050
   Max. coefficient     DIISMaxC        ....  10.000
 Trust-Rad. Augm. Hess. CNVTRAH         .... auto
   Auto Start mean grad. ratio tolernc. ....  1.125000
   Auto Start start iteration           ....    20
   Auto Start num. interpolation iter.  ....    10
   Max. Number of Micro iterations      ....    16
   Max. Number of Macro iterations      .... Maxiter - #DIIS iter
   Number of Davidson start vectors     ....     2
   Converg. threshold I  (grad. norm)   ....   5.000e-05
   Converg. threshold II (energy diff.) ....   1.000e-06
   Grad. Scal. Fac. for Micro threshold ....   0.100
   Minimum threshold for Micro iter.    ....   0.010
   NR start threshold (gradient norm)   ....   0.001
   Initial trust radius                 ....   0.400
   Minimum AH scaling param. (alpha)    ....   1.000
   Maximum AH scaling param. (alpha)    .... 1000.000
   Orbital update algorithm             .... Taylor
   White noise on init. David. guess    .... on
   Maximum white noise                  ....   0.010
   Quad. conv. algorithm                .... NR
 SOSCF                  CNVSOSCF        .... off
 Level Shifting         CNVShift        .... on
   Level shift para.    LevelShift      ....    0.2500
   Turn off err/grad.   ShiftErr        ....    0.0010
 Zerner damping         CNVZerner       .... off
 Static damping         CNVDamp         .... on
   Fraction old density DampFac         ....    0.7000
   Max. Damping (<1)    DampMax         ....    0.9800
   Min. Damping (>=0)   DampMin         ....    0.0000
   Turn off err/grad.   DampErr         ....    0.1000
 Fernandez-Rico         CNVRico         .... off

SCF Procedure:
 Maximum # iterations   MaxIter         ....   125
 SCF integral mode      SCFMode         .... Direct
   Integral package                     .... SHARK and LIBINT hybrid scheme
 Reset frequency        DirectResetFreq ....    20
 Integral Threshold     Thresh          ....  1.000e-10 Eh
 Primitive CutOff       TCut            ....  1.000e-11 Eh

Convergence Tolerance:
 Convergence Check Mode ConvCheckMode   .... Total+1el-Energy
 Convergence forced     ConvForced      .... 1
 Energy Change          TolE            ....  1.000e-06 Eh
 1-El. energy change                    ....  1.000e-03 Eh
 DIIS Error             TolErr          ....  1.000e-06


Diagonalization of the overlap matrix:
Smallest eigenvalue                        ... 1.512e-04
Time for diagonalization                   ...    0.126 sec
Threshold for overlap eigenvalues          ... 1.000e-08
Number of eigenvalues below threshold      ... 0
Time for construction of square roots      ...    0.067 sec
Total time needed                          ...    0.196 sec

Time for model grid setup =    0.900 sec

------------------------------
INITIAL GUESS: MODEL POTENTIAL
------------------------------
Loading ZORA relativistic densities                ... done
Calculating cut-offs                               ... done
Initializing the effective Hamiltonian             ... done
Setting up the integral package (SHARK)            ... done
Starting the Coulomb interaction                   ... done (   0.7 sec)
Reading the grid                                   ... done
Mapping shells                                     ... done
Starting the XC term evaluation                    ... done (   0.3 sec)
  promolecular density results
     # of electrons  =    348.008678067
     EX              =   -382.450911666
     EC              =    -12.593993252
     EX+EC           =   -395.044904918
Transforming the Hamiltonian                       ... done (   0.1 sec)
Diagonalizing the Hamiltonian                      ... done (   0.1 sec)
Back transforming the eigenvectors                 ... done (   0.0 sec)
Now organizing SCF variables                       ... done
                      ------------------
                      INITIAL GUESS DONE (   2.1 sec)
                      ------------------
-------------------
DFT GRID GENERATION
-------------------

General Integration Accuracy     IntAcc      ... 4.959
Radial Grid Type                 RadialGrid  ... OptM3 with GC (2021)
Angular Grid (max. ang.)         AngularGrid ... 6 (Lebedev-590)
Angular grid pruning method      GridPruning ... 4 (adaptive)
Weight generation scheme         WeightScheme... Becke
Basis function cutoff            BFCut       ... 1.0000e-10
Integration weight cutoff        WCut        ... 1.0000e-14
Angular grids for H and He will be reduced by one unit
Partially contracted basis set               ... off
Rotationally invariant grid construction     ... off

Total number of grid points                  ...   916146
Total number of batches                      ...    14352
Average number of points per batch           ...       63
Average number of grid points per atom       ...    12380
Time for grid setup =   12.541 sec


--------------------
CPCM SOLVATION MODEL
--------------------
CPCM parameters:
  Epsilon                                         ...      37.2190
  Refrac                                          ...       1.4305
  Rsolv                                           ...       1.3000
  Surface type                                    ... GAUSSIAN VDW
  Epsilon function type                           ...         CPCM
Solvent:                                     ... DMF
SMD-CDS solvent descriptors:
  Soln                                       ...    1.4305
  Soln25                                     ...    1.4280
  Sola                                       ...    0.0000
  Solb                                       ...    0.7400
  Solg                                       ...   49.5600
  Solc                                       ...    0.0000
  Solh                                       ...    0.0000
Radii:
 Radius for C  used is    3.4960 Bohr (=   1.8500 Ang.)
 Radius for H  used is    2.2677 Bohr (=   1.2000 Ang.)
 Radius for N  used is    3.5716 Bohr (=   1.8900 Ang.)
 Radius for Ru used is    3.9117 Bohr (=   2.0700 Ang.)
Calculating surface                               ...        done! (  0.0s)
GEPOL surface points                              ...         4064
GEPOL Volume                                      ...    3996.9030
GEPOL Surface-area                                ...    2020.7397
Calculating surface distance matrix               ...        done! (  0.1s)
Performing Cholesky decomposition & store         ...        done! (  0.5s)
Overall time for CPCM initialization              ...                 0.6s
--------------
SCF ITERATIONS
--------------
ITER       Energy         Delta-E        Max-DP      RMS-DP      [F,P]     Damp
               ***  Starting incremental Fock matrix formation  ***
  0  -6406.4877173580   0.000000000000 0.65542893  0.00274292  2.1222895 0.7000
  1  -6408.4177348854  -1.930017527375 0.13991725  0.00116261  1.4577829 0.7000
  2  -6408.5781597469  -0.160424861469 0.18027965  0.00107236  1.0115586 0.7000
  3  -6409.0664607033  -0.488300956456 0.09923213  0.00054906  0.7050461 0.7000
  4  -6409.3379698873  -0.271509183959 0.05365157  0.00044384  0.4889043 0.7000
  5  -6409.5646852517  -0.226715364373 0.05197815  0.00034107  0.3387042 0.7000
  6  -6409.7145350743  -0.149849822645 0.04503828  0.00025881  0.2353910 0.7000
                               ***Turning on DIIS***
  7  -6409.8223561451  -0.107821070766 0.03222588  0.00018830  0.1638748 0.7000
  8  -6409.8979994608  -0.075643315769 0.01962852  0.00012858  0.1139652 0.7000
  9  -6409.9507658630  -0.052766402129 0.05552516  0.00034139  0.0792176 0.0000
 10  -6410.0753304750  -0.124564612012 0.00440292  0.00002589  0.0035628 0.0000
 11  -6410.0754253768  -0.000094901825 0.00205141  0.00001356  0.0031480 0.0000
 12  -6410.0755003660  -0.000074989235 0.00164703  0.00002773  0.0007912 0.0000
 13  -6410.0755393399  -0.000038973903 0.00043855  0.00000405  0.0002197 0.0000
 14  -6410.0755387657   0.000000574271 0.00032209  0.00000268  0.0003602 0.0000
 15  -6410.0755401941  -0.000001428431 0.00006647  0.00000096  0.0000633 0.0000
 16  -6410.0755399940   0.000000200136 0.00004181  0.00000058  0.0000545 0.0000
 17  -6410.0755400419  -0.000000047983 0.00001830  0.00000029  0.0000453 0.0000
                 **** Energy Check signals convergence ****

               *****************************************************
               *                     SUCCESS                       *
               *           SCF CONVERGED AFTER  18 CYCLES          *
               *****************************************************


SMD CDS free energy correction energy :                -6.37806     Kcal/mol
Total Energy after SMD CDS correction =             -6410.085704561 Eh

----------------
TOTAL SCF ENERGY
----------------

Total Energy       :        -6410.08570456 Eh         -174427.29973 eV

Components:
Nuclear Repulsion  :         7262.04544306 Eh          197610.30282 eV
Electronic Energy  :       -13672.13114762 Eh         -372037.60255 eV
One Electron Energy:       -23172.92548713 Eh         -630567.35993 eV
Two Electron Energy:         9500.79433951 Eh          258529.75738 eV
CPCM Dielectric    :           -0.21015946 Eh              -5.71873 eV
SMD CDS (Gcds)     :           -0.01016408 Eh              -0.27658 eV

Virial components:
Potential Energy   :       -12976.71978023 Eh         -353114.49721 eV
Kinetic Energy     :         6566.63407567 Eh          178687.19748 eV
Virial Ratio       :            1.97616003


DFT components:
N(Alpha)           :      173.000005260912 electrons
N(Beta)            :      173.000005260912 electrons
N(Total)           :      346.000010521824 electrons
E(XC)              :     -398.176979079630 Eh       
DFET-embed. en.    :        0.000000000000 Eh       
CPCM Solvation Model Properties:
Surface-charge          :           -2.05966782
Charge-correction       :            0.01062936 Eh               0.28924 eV
Free-energy (cav+disp)  :           -0.01016408 Eh              -0.27658 eV

---------------
SCF CONVERGENCE
---------------

  Last Energy change         ...   -4.3780e-07  Tolerance :   1.0000e-06
  Last MAX-Density change    ...    4.4471e-05  Tolerance :   1.0000e-05
  Last RMS-Density change    ...    4.9966e-07  Tolerance :   1.0000e-06
  Last DIIS Error            ...    1.3047e-05  Tolerance :   1.0000e-06

             **** THE GBW FILE WAS UPDATED (Ru-PRC_2_SOC-M06L_def2SVP.gbw) ****
             **** DENSITY Ru-PRC_2_SOC-M06L_def2SVP.scfp WAS UPDATED ****
             **** ENERGY FILE WAS UPDATED (Ru-PRC_2_SOC-M06L_def2SVP.en.tmp) ****
             **** THE GBW FILE WAS UPDATED (Ru-PRC_2_SOC-M06L_def2SVP.gbw) ****
             **** DENSITY Ru-PRC_2_SOC-M06L_def2SVP.scfp WAS UPDATED ****
----------------
ORBITAL ENERGIES
----------------

  NO   OCC          E(Eh)            E(eV) 
   0   2.0000    -828.324553    -22539.8570 
   1   2.0000    -117.302181     -3191.9546 
   2   2.0000    -104.859752     -2853.3789 
   3   2.0000    -104.859739     -2853.3786 
   4   2.0000    -104.858971     -2853.3577 
   5   2.0000     -20.874701      -568.0295 
   6   2.0000     -16.752268      -455.8524 
   7   2.0000     -16.752246      -455.8518 
   8   2.0000     -16.749109      -455.7664 
   9   2.0000     -14.248813      -387.7299 
  10   2.0000     -14.248526      -387.7221 
  11   2.0000     -14.248513      -387.7218 
  12   2.0000     -14.248377      -387.7181 
  13   2.0000     -14.248360      -387.7176 
  14   2.0000     -14.247844      -387.7035 
  15   2.0000     -10.186245      -277.1818 
  16   2.0000     -10.186236      -277.1816 
  17   2.0000     -10.184204      -277.1263 
  18   2.0000     -10.184177      -277.1255 
  19   2.0000     -10.183086      -277.0959 
  20   2.0000     -10.128345      -275.6063 
  21   2.0000     -10.128111      -275.5999 
  22   2.0000     -10.127975      -275.5962 
  23   2.0000     -10.127754      -275.5902 
  24   2.0000     -10.127475      -275.5826 
  25   2.0000     -10.125873      -275.5390 
  26   2.0000     -10.124124      -275.4914 
  27   2.0000     -10.123908      -275.4856 
  28   2.0000     -10.123773      -275.4819 
  29   2.0000     -10.123585      -275.4767 
  30   2.0000     -10.123358      -275.4706 
  31   2.0000     -10.122074      -275.4356 
  32   2.0000     -10.102584      -274.9053 
  33   2.0000     -10.102415      -274.9007 
  34   2.0000     -10.102323      -274.8982 
  35   2.0000     -10.102212      -274.8952 
  36   2.0000     -10.101796      -274.8838 
  37   2.0000     -10.101409      -274.8733 
  38   2.0000     -10.099298      -274.8159 
  39   2.0000     -10.096253      -274.7330 
  40   2.0000     -10.096081      -274.7283 
  41   2.0000     -10.095967      -274.7252 
  42   2.0000     -10.095864      -274.7224 
  43   2.0000     -10.095599      -274.7152 
  44   2.0000     -10.094446      -274.6838 
  45   2.0000     -10.089189      -274.5408 
  46   2.0000     -10.088933      -274.5338 
  47   2.0000     -10.088834      -274.5311 
  48   2.0000     -10.088764      -274.5292 
  49   2.0000     -10.088403      -274.5194 
  50   2.0000     -10.087242      -274.4878 
  51   2.0000     -10.087118      -274.4844 
  52   2.0000     -10.086892      -274.4783 
  53   2.0000     -10.086790      -274.4755 
  54   2.0000     -10.086769      -274.4749 
  55   2.0000     -10.086399      -274.4649 
  56   2.0000     -10.085976      -274.4534 
  57   2.0000     -10.061415      -273.7850 
  58   2.0000     -10.058609      -273.7087 
  59   2.0000      -2.914122       -79.2973 
  60   2.0000      -1.781353       -48.4731 
  61   2.0000      -1.781208       -48.4691 
  62   2.0000      -1.771350       -48.2009 
  63   2.0000      -0.961210       -26.1559 
  64   2.0000      -0.955313       -25.9954 
  65   2.0000      -0.955225       -25.9930 
  66   2.0000      -0.930590       -25.3226 
  67   2.0000      -0.930580       -25.3224 
  68   2.0000      -0.930297       -25.3147 
  69   2.0000      -0.833729       -22.6869 
  70   2.0000      -0.832131       -22.6434 
  71   2.0000      -0.831689       -22.6314 
  72   2.0000      -0.809288       -22.0218 
  73   2.0000      -0.791311       -21.5327 
  74   2.0000      -0.791031       -21.5250 
  75   2.0000      -0.789042       -21.4709 
  76   2.0000      -0.786082       -21.3904 
  77   2.0000      -0.785846       -21.3839 
  78   2.0000      -0.760182       -20.6856 
  79   2.0000      -0.731524       -19.9058 
  80   2.0000      -0.731229       -19.8978 
  81   2.0000      -0.728561       -19.8252 
  82   2.0000      -0.727796       -19.8043 
  83   2.0000      -0.727701       -19.8018 
  84   2.0000      -0.718135       -19.5414 
  85   2.0000      -0.657414       -17.8892 
  86   2.0000      -0.644042       -17.5253 
  87   2.0000      -0.643088       -17.4993 
  88   2.0000      -0.642865       -17.4932 
  89   2.0000      -0.630905       -17.1678 
  90   2.0000      -0.630425       -17.1547 
  91   2.0000      -0.627764       -17.0823 
  92   2.0000      -0.623395       -16.9634 
  93   2.0000      -0.623213       -16.9585 
  94   2.0000      -0.621281       -16.9059 
  95   2.0000      -0.591602       -16.0983 
  96   2.0000      -0.590731       -16.0746 
  97   2.0000      -0.590206       -16.0603 
  98   2.0000      -0.551451       -15.0057 
  99   2.0000      -0.539875       -14.6907 
 100   2.0000      -0.538590       -14.6558 
 101   2.0000      -0.533523       -14.5179 
 102   2.0000      -0.524354       -14.2684 
 103   2.0000      -0.523555       -14.2466 
 104   2.0000      -0.507548       -13.8111 
 105   2.0000      -0.507001       -13.7962 
 106   2.0000      -0.506051       -13.7704 
 107   2.0000      -0.505747       -13.7621 
 108   2.0000      -0.471217       -12.8225 
 109   2.0000      -0.470536       -12.8039 
 110   2.0000      -0.470083       -12.7916 
 111   2.0000      -0.469293       -12.7701 
 112   2.0000      -0.468580       -12.7507 
 113   2.0000      -0.464719       -12.6456 
 114   2.0000      -0.460494       -12.5307 
 115   2.0000      -0.460213       -12.5230 
 116   2.0000      -0.458855       -12.4861 
 117   2.0000      -0.441387       -12.0108 
 118   2.0000      -0.440616       -11.9898 
 119   2.0000      -0.432349       -11.7648 
 120   2.0000      -0.429352       -11.6833 
 121   2.0000      -0.425022       -11.5654 
 122   2.0000      -0.419151       -11.4057 
 123   2.0000      -0.418847       -11.3974 
 124   2.0000      -0.415529       -11.3071 
 125   2.0000      -0.415179       -11.2976 
 126   2.0000      -0.409657       -11.1473 
 127   2.0000      -0.409335       -11.1386 
 128   2.0000      -0.408799       -11.1240 
 129   2.0000      -0.403132       -10.9698 
 130   2.0000      -0.399755       -10.8779 
 131   2.0000      -0.397688       -10.8216 
 132   2.0000      -0.396900       -10.8002 
 133   2.0000      -0.396245       -10.7824 
 134   2.0000      -0.393892       -10.7184 
 135   2.0000      -0.391611       -10.6563 
 136   2.0000      -0.387874       -10.5546 
 137   2.0000      -0.387554       -10.5459 
 138   2.0000      -0.386278       -10.5112 
 139   2.0000      -0.381557       -10.3827 
 140   2.0000      -0.370965       -10.0945 
 141   2.0000      -0.361189        -9.8285 
 142   2.0000      -0.357811        -9.7365 
 143   2.0000      -0.351415        -9.5625 
 144   2.0000      -0.349076        -9.4988 
 145   2.0000      -0.347881        -9.4663 
 146   2.0000      -0.346805        -9.4370 
 147   2.0000      -0.346207        -9.4208 
 148   2.0000      -0.344006        -9.3609 
 149   2.0000      -0.339527        -9.2390 
 150   2.0000      -0.330625        -8.9968 
 151   2.0000      -0.327546        -8.9130 
 152   2.0000      -0.326496        -8.8844 
 153   2.0000      -0.323044        -8.7905 
 154   2.0000      -0.315491        -8.5850 
 155   2.0000      -0.310624        -8.4525 
 156   2.0000      -0.306713        -8.3461 
 157   2.0000      -0.305992        -8.3265 
 158   2.0000      -0.303430        -8.2567 
 159   2.0000      -0.302186        -8.2229 
 160   2.0000      -0.300062        -8.1651 
 161   2.0000      -0.299070        -8.1381 
 162   2.0000      -0.292000        -7.9457 
 163   2.0000      -0.268694        -7.3115 
 164   2.0000      -0.255792        -6.9604 
 165   2.0000      -0.254397        -6.9225 
 166   2.0000      -0.243140        -6.6162 
 167   2.0000      -0.242380        -6.5955 
 168   2.0000      -0.241835        -6.5807 
 169   2.0000      -0.226693        -6.1686 
 170   2.0000      -0.197431        -5.3724 
 171   2.0000      -0.197312        -5.3691 
 172   2.0000      -0.189168        -5.1475 
 173   0.0000      -0.113887        -3.0990 
 174   0.0000      -0.108705        -2.9580 
 175   0.0000      -0.106491        -2.8978 
 176   0.0000      -0.105275        -2.8647 
 177   0.0000      -0.103478        -2.8158 
 178   0.0000      -0.102851        -2.7987 
 179   0.0000      -0.067579        -1.8389 
 180   0.0000      -0.058936        -1.6037 
 181   0.0000      -0.055454        -1.5090 
 182   0.0000      -0.043998        -1.1973 
 183   0.0000      -0.033066        -0.8998 
 184   0.0000      -0.032551        -0.8858 
 185   0.0000      -0.022360        -0.6084 
 186   0.0000      -0.021839        -0.5943 
 187   0.0000      -0.013792        -0.3753 
 188   0.0000       0.007573         0.2061 
 189   0.0000       0.010392         0.2828 
 190   0.0000       0.029197         0.7945 
 191   0.0000       0.054770         1.4904 
 192   0.0000       0.062437         1.6990 
 193   0.0000       0.064709         1.7608 
 194   0.0000       0.065164         1.7732 
 195   0.0000       0.071752         1.9525 
 196   0.0000       0.072180         1.9641 
 197   0.0000       0.074062         2.0153 
 198   0.0000       0.076064         2.0698 
 199   0.0000       0.076451         2.0803 
 200   0.0000       0.085615         2.3297 
 201   0.0000       0.086602         2.3566 
 202   0.0000       0.088416         2.4059 
 203   0.0000       0.094781         2.5791 
 204   0.0000       0.096242         2.6189 
 205   0.0000       0.098983         2.6935 
 206   0.0000       0.104007         2.8302 
 207   0.0000       0.105350         2.8667 
 208   0.0000       0.111225         3.0266 
 209   0.0000       0.115365         3.1392 
 210   0.0000       0.118371         3.2210 
 211   0.0000       0.125421         3.4129 
 212   0.0000       0.126349         3.4381 
 213   0.0000       0.131352         3.5743 
 214   0.0000       0.134310         3.6548 
 215   0.0000       0.135846         3.6966 
 216   0.0000       0.140290         3.8175 
 217   0.0000       0.145606         3.9622 
 218   0.0000       0.148264         4.0345 
 219   0.0000       0.151521         4.1231 
 220   0.0000       0.152021         4.1367 
 221   0.0000       0.153055         4.1648 
 222   0.0000       0.156849         4.2681 
 223   0.0000       0.157142         4.2760 
 224   0.0000       0.159701         4.3457 
 225   0.0000       0.161065         4.3828 
 226   0.0000       0.164805         4.4846 
 227   0.0000       0.173407         4.7187 
 228   0.0000       0.185968         5.0604 
 229   0.0000       0.201737         5.4895 
 230   0.0000       0.203112         5.5270 
 231   0.0000       0.205337         5.5875 
 232   0.0000       0.205924         5.6035 
 233   0.0000       0.207950         5.6586 
 234   0.0000       0.208632         5.6772 
 235   0.0000       0.209934         5.7126 
 236   0.0000       0.213343         5.8054 
 237   0.0000       0.218860         5.9555 
 238   0.0000       0.229632         6.2486 
 239   0.0000       0.232381         6.3234 
 240   0.0000       0.234586         6.3834 
 241   0.0000       0.239156         6.5078 
 242   0.0000       0.240235         6.5371 
 243   0.0000       0.246467         6.7067 
 244   0.0000       0.247578         6.7369 
 245   0.0000       0.254505         6.9254 
 246   0.0000       0.259258         7.0548 
 247   0.0000       0.260833         7.0976 
 248   0.0000       0.262019         7.1299 
 249   0.0000       0.263799         7.1783 
 250   0.0000       0.265410         7.2222 
 251   0.0000       0.267503         7.2791 
 252   0.0000       0.268961         7.3188 
 253   0.0000       0.273549         7.4436 
 254   0.0000       0.280164         7.6237 
 255   0.0000       0.282506         7.6874 
 256   0.0000       0.286193         7.7877 
 257   0.0000       0.291273         7.9259 
 258   0.0000       0.293869         7.9966 
 259   0.0000       0.297020         8.0823 
 260   0.0000       0.305142         8.3033 
 261   0.0000       0.306834         8.3494 
 262   0.0000       0.313084         8.5195 
 263   0.0000       0.316102         8.6016 
 264   0.0000       0.318458         8.6657 
 265   0.0000       0.320670         8.7259 
 266   0.0000       0.323675         8.8076 
 267   0.0000       0.326178         8.8758 
 268   0.0000       0.337484         9.1834 
 269   0.0000       0.338911         9.2222 
 270   0.0000       0.340830         9.2745 
 271   0.0000       0.346503         9.4288 
 272   0.0000       0.348755         9.4901 
 273   0.0000       0.352649         9.5961 
 274   0.0000       0.363351         9.8873 
 275   0.0000       0.365910         9.9569 
 276   0.0000       0.368879        10.0377 
 277   0.0000       0.375679        10.2227 
 278   0.0000       0.385308        10.4848 
 279   0.0000       0.396091        10.7782 
 280   0.0000       0.396217        10.7816 
 281   0.0000       0.398184        10.8351 
 282   0.0000       0.399780        10.8786 
 283   0.0000       0.401302        10.9200 
 284   0.0000       0.406949        11.0736 
 285   0.0000       0.408565        11.1176 
 286   0.0000       0.409310        11.1379 
 287   0.0000       0.411101        11.1866 
 288   0.0000       0.413320        11.2470 
 289   0.0000       0.416737        11.3400 
 290   0.0000       0.420185        11.4338 
 291   0.0000       0.421617        11.4728 
 292   0.0000       0.426442        11.6041 
 293   0.0000       0.429837        11.6965 
 294   0.0000       0.431004        11.7282 
 295   0.0000       0.431358        11.7378 
 296   0.0000       0.435347        11.8464 
 297   0.0000       0.440244        11.9796 
 298   0.0000       0.441825        12.0227 
 299   0.0000       0.442589        12.0435 
 300   0.0000       0.446367        12.1463 
 301   0.0000       0.448814        12.2128 
 302   0.0000       0.449701        12.2370 
 303   0.0000       0.454413        12.3652 
 304   0.0000       0.457572        12.4512 
 305   0.0000       0.458593        12.4790 
 306   0.0000       0.467581        12.7235 
 307   0.0000       0.469853        12.7853 
 308   0.0000       0.472439        12.8557 
 309   0.0000       0.472705        12.8630 
 310   0.0000       0.476765        12.9734 
 311   0.0000       0.478794        13.0286 
 312   0.0000       0.481107        13.0916 
 313   0.0000       0.494116        13.4456 
 314   0.0000       0.495533        13.4841 
 315   0.0000       0.501316        13.6415 
 316   0.0000       0.501607        13.6494 
 317   0.0000       0.504887        13.7387 
 318   0.0000       0.507722        13.8158 
 319   0.0000       0.509606        13.8671 
 320   0.0000       0.511298        13.9131 
 321   0.0000       0.515281        14.0215 
 322   0.0000       0.516164        14.0455 
 323   0.0000       0.517246        14.0750 
 324   0.0000       0.522638        14.2217 
 325   0.0000       0.524025        14.2594 
 326   0.0000       0.527120        14.3437 
 327   0.0000       0.528522        14.3818 
 328   0.0000       0.532802        14.4983 
 329   0.0000       0.535224        14.5642 
 330   0.0000       0.537664        14.6306 
 331   0.0000       0.541611        14.7380 
 332   0.0000       0.546817        14.8797 
 333   0.0000       0.552952        15.0466 
 334   0.0000       0.567205        15.4344 
 335   0.0000       0.567862        15.4523 
 336   0.0000       0.577223        15.7070 
 337   0.0000       0.578150        15.7323 
 338   0.0000       0.582237        15.8435 
 339   0.0000       0.584149        15.8955 
 340   0.0000       0.586937        15.9714 
 341   0.0000       0.591030        16.0827 
 342   0.0000       0.593858        16.1597 
 343   0.0000       0.595656        16.2086 
 344   0.0000       0.601863        16.3775 
 345   0.0000       0.602585        16.3972 
 346   0.0000       0.605260        16.4700 
 347   0.0000       0.606641        16.5075 
 348   0.0000       0.611027        16.6269 
 349   0.0000       0.613104        16.6834 
 350   0.0000       0.615806        16.7569 
 351   0.0000       0.617874        16.8132 
 352   0.0000       0.619309        16.8522 
 353   0.0000       0.622465        16.9381 
 354   0.0000       0.625425        17.0187 
 355   0.0000       0.629280        17.1236 
 356   0.0000       0.631517        17.1845 
 357   0.0000       0.633290        17.2327 
 358   0.0000       0.634068        17.2539 
 359   0.0000       0.643741        17.5171 
 360   0.0000       0.644582        17.5400 
 361   0.0000       0.645078        17.5535 
 362   0.0000       0.647860        17.6292 
 363   0.0000       0.649652        17.6779 
 364   0.0000       0.650637        17.7047 
 365   0.0000       0.656409        17.8618 
 366   0.0000       0.656854        17.8739 
 367   0.0000       0.660320        17.9682 
 368   0.0000       0.661921        18.0118 
 369   0.0000       0.664064        18.0701 
 370   0.0000       0.664863        18.0918 
 371   0.0000       0.667453        18.1623 
 372   0.0000       0.670734        18.2516 
 373   0.0000       0.672666        18.3042 
 374   0.0000       0.676130        18.3984 
 375   0.0000       0.677609        18.4387 
 376   0.0000       0.680554        18.5188 
 377   0.0000       0.686700        18.6861 
 378   0.0000       0.688623        18.7384 
 379   0.0000       0.694227        18.8909 
 380   0.0000       0.695265        18.9191 
 381   0.0000       0.700997        19.0751 
 382   0.0000       0.706489        19.2246 
 383   0.0000       0.709461        19.3054 
 384   0.0000       0.711911        19.3721 
 385   0.0000       0.715684        19.4747 
 386   0.0000       0.716807        19.5053 
 387   0.0000       0.718559        19.5530 
 388   0.0000       0.720004        19.5923 
 389   0.0000       0.730307        19.8727 
 390   0.0000       0.730980        19.8910 
 391   0.0000       0.732154        19.9229 
 392   0.0000       0.736123        20.0309 
 393   0.0000       0.737761        20.0755 
 394   0.0000       0.741873        20.1874 
 395   0.0000       0.746797        20.3214 
 396   0.0000       0.747984        20.3537 
 397   0.0000       0.751671        20.4540 
 398   0.0000       0.757588        20.6150 
 399   0.0000       0.760032        20.6815 
 400   0.0000       0.767130        20.8747 
 401   0.0000       0.773228        21.0406 
 402   0.0000       0.773949        21.0602 
 403   0.0000       0.780113        21.2279 
 404   0.0000       0.780991        21.2518 
 405   0.0000       0.789211        21.4755 
 406   0.0000       0.790928        21.5222 
 407   0.0000       0.794886        21.6299 
 408   0.0000       0.797097        21.6901 
 409   0.0000       0.805149        21.9092 
 410   0.0000       0.806097        21.9350 
 411   0.0000       0.808729        22.0066 
 412   0.0000       0.816375        22.2147 
 413   0.0000       0.822060        22.3694 
 414   0.0000       0.826054        22.4781 
 415   0.0000       0.831217        22.6186 
 416   0.0000       0.835299        22.7296 
 417   0.0000       0.842913        22.9368 
 418   0.0000       0.849407        23.1135 
 419   0.0000       0.854890        23.2627 
 420   0.0000       0.859062        23.3763 
 421   0.0000       0.870127        23.6773 
 422   0.0000       0.875562        23.8253 
 423   0.0000       0.884159        24.0592 
 424   0.0000       0.886056        24.1108 
 425   0.0000       0.899188        24.4681 
 426   0.0000       0.902200        24.5501 
 427   0.0000       0.906763        24.6743 
 428   0.0000       0.916760        24.9463 
 429   0.0000       0.920348        25.0439 
 430   0.0000       0.931609        25.3504 
 431   0.0000       0.943458        25.6728 
[...]
   0  85   25638.8    390.0     -5.40723 (  0.00354, -0.10116) ( -0.00145,  0.04142) ( -0.00158,  0.04526)
   0  86   25738.5    388.5     -0.00040 (  0.00105, -0.00043) ( -0.00073,  0.00030) ( -0.00216,  0.00089)
   0  87   25738.6    388.5     -0.00242 ( -0.00055,  0.00082) ( -0.00021,  0.00031) (  0.00019, -0.00028)
   0  88   25738.9    388.5      0.03021 ( -0.00176, -0.00543) (  0.00079,  0.00243) (  0.00133,  0.00409)
   0  89   26226.8    381.3      0.00019 (  0.00092,  0.00015) (  0.00020,  0.00003) (  0.00053,  0.00009)
   0  90   26231.8    381.2     -0.03342 (  0.00179, -0.00001) ( -0.00400,  0.00002) (  0.00246, -0.00002)
   0  91   26242.8    381.1      0.12665 ( -0.00209, -0.00188) (  0.00502,  0.00452) (  0.00341,  0.00306)
   0  92   26356.8    379.4     -0.00037 (  0.00129,  0.00018) ( -0.00271, -0.00039) ( -0.00575, -0.00082)
   0  93   26363.2    379.3     -0.03518 ( -0.00031,  0.00329) (  0.00060, -0.00638) (  0.00011, -0.00121)
   0  94   26369.0    379.2     -0.36648 ( -0.00218, -0.00078) (  0.01000,  0.00357) (  0.02690,  0.00960)
   0  95   26406.6    378.7      0.01147 (  0.00002,  0.00039) ( -0.00004, -0.00095) ( -0.00003, -0.00072)
   0  96   26408.2    378.7     -0.07436 (  0.00718, -0.00138) ( -0.00772,  0.00149) ( -0.01533,  0.00296)
   0  97   26411.6    378.6      0.01390 (  0.00216,  0.00055) ( -0.00449, -0.00115) ( -0.00737, -0.00189)
   0  98   26531.8    376.9      0.74074 (  0.03689, -0.00958) ( -0.01607,  0.00417) ( -0.03732,  0.00969)
   0  99   26550.6    376.6     -1.47165 (  0.00297,  0.00909) (  0.00042,  0.00127) (  0.01546,  0.04725)
   0 100   26687.8    374.7      0.00038 (  0.00003,  0.00022) (  0.00001,  0.00007) (  0.00006,  0.00052)
   0 101   26692.8    374.6     -0.05829 ( -0.00386,  0.00176) (  0.00466, -0.00212) (  0.00236, -0.00107)
   0 102   26714.7    374.3     -0.77706 (  0.00380,  0.00429) ( -0.00867, -0.00977) ( -0.02856, -0.03219)
   0 103   26846.5    372.5      1.40633 ( -0.01739,  0.02039) (  0.00942, -0.01104) (  0.02340, -0.02743)
   0 104   26913.7    371.6     -0.07953 ( -0.00581, -0.00271) (  0.00553,  0.00257) (  0.01117,  0.00520)
   0 105   26915.5    371.5      0.01248 (  0.00100, -0.00245) (  0.00016, -0.00038) ( -0.00091,  0.00224)
   0 106   26915.9    371.5     -0.08095 (  0.00375,  0.00332) ( -0.00464, -0.00410) ( -0.00984, -0.00870)
   0 107   27039.5    369.8      0.00439 (  0.00070, -0.00171) ( -0.00066,  0.00162) ( -0.00129,  0.00317)
   0 108   27039.9    369.8      0.00105 ( -0.00007,  0.00000) ( -0.00057,  0.00002) (  0.00066, -0.00003)
   0 109   27040.1    369.8     -0.00192 (  0.00016,  0.00006) (  0.00020,  0.00008) ( -0.00248, -0.00099)
   0 110   27115.1    368.8      0.02559 ( -0.00276, -0.00741) (  0.00207,  0.00555) (  0.00303,  0.00813)
   0 111   27115.4    368.8      0.00716 ( -0.00053,  0.00050) (  0.00146, -0.00137) (  0.00175, -0.00165)
   0 112   27115.8    368.8      0.02620 ( -0.00483,  0.00215) (  0.00424, -0.00188) (  0.00723, -0.00322)
   0 113   27164.1    368.1      1.81970 (  0.00941, -0.02233) ( -0.00836,  0.01985) ( -0.00786,  0.01866)
   0 114   27272.9    366.7     -0.01770 (  0.00201,  0.00349) ( -0.00124, -0.00215) ( -0.00327, -0.00568)
   0 115   27273.1    366.7     -0.00149 ( -0.00100, -0.00076) (  0.00139,  0.00106) (  0.00208,  0.00159)
   0 116   27273.7    366.7     -0.03553 ( -0.00280,  0.00392) (  0.00218, -0.00305) (  0.00531, -0.00744)
   0 117   27575.9    362.6    -29.29986 ( -0.15319,  0.02726) (  0.13485, -0.02400) (  0.21146, -0.03763)
   0 118   27974.1    357.5      2.73519 (  0.00750, -0.04394) ( -0.01326,  0.07763) ( -0.02016,  0.11804)
   0 119   27985.3    357.3      0.01332 ( -0.00042,  0.00031) (  0.00360, -0.00268) (  0.00494, -0.00367)
   0 120   28020.8    356.9      0.37901 ( -0.00373,  0.00559) (  0.00769, -0.01153) ( -0.00014,  0.00020)
   0 121   28058.7    356.4     -3.49677 ( -0.00538, -0.01337) ( -0.00304, -0.00756) ( -0.00761, -0.01890)
   0 122   28099.6    355.9      0.02411 (  0.00118,  0.00068) ( -0.00639, -0.00367) ( -0.00823, -0.00472)
   0 123   28136.4    355.4     -0.02977 ( -0.00028,  0.00017) ( -0.00609,  0.00378) (  0.00007, -0.00004)
   0 124   28166.1    355.0      0.48362 (  0.00591, -0.00715) ( -0.00173,  0.00209) ( -0.00187,  0.00226)
   0 125   28317.5    353.1     -0.01672 (  0.00467,  0.00101) ( -0.00046, -0.00010) ( -0.01277, -0.00277)
   0 126   28363.5    352.6     -5.69207 (  0.02808,  0.03871) ( -0.01870, -0.02578) ( -0.00286, -0.00395)
   0 127   28407.9    352.0     -1.17513 (  0.00480, -0.03987) ( -0.00457,  0.03794) ( -0.00531,  0.04404)
   0 128   28417.0    351.9     -0.10060 ( -0.00527, -0.01344) (  0.00600,  0.01530) (  0.00503,  0.01281)
   0 129   28494.4    350.9      0.06396 ( -0.00758, -0.00241) (  0.00267,  0.00085) (  0.00535,  0.00170)
   0 130   28507.2    350.8     -1.11520 ( -0.01949, -0.01322) (  0.01455,  0.00987) ( -0.00648, -0.00439)
   0 131   28519.9    350.6     -0.02914 ( -0.00256, -0.00253) (  0.00176,  0.00174) ( -0.00141, -0.00139)
   0 132   28554.0    350.2      1.29793 (  0.03180,  0.02676) ( -0.02212, -0.01862) (  0.01429,  0.01202)
   0 133   28604.1    349.6     -2.26800 (  0.00098,  0.01051) ( -0.00093, -0.00998) ( -0.00092, -0.00986)
   0 134   28671.8    348.8     -0.03736 (  0.00029,  0.00307) ( -0.00018, -0.00185) ( -0.00055, -0.00579)
   0 135   28676.8    348.7      0.00570 ( -0.00143,  0.00009) (  0.00135, -0.00008) (  0.00097, -0.00006)
   0 136   28682.5    348.6     -0.32957 ( -0.00329, -0.00600) (  0.00293,  0.00535) ( -0.00114, -0.00208)
   0 137   28780.7    347.5     -0.00888 ( -0.00022, -0.00701) (  0.00004,  0.00117) (  0.00007,  0.00216)
   0 138   28787.1    347.4     -0.02978 (  0.00026,  0.00011) (  0.00073,  0.00032) ( -0.00261, -0.00115)
   0 139   28800.6    347.2      0.32209 (  0.00065, -0.00150) (  0.00548, -0.01264) (  0.00009, -0.00021)
   0 140   28863.8    346.5      3.58022 (  0.00764,  0.01672) (  0.00821,  0.01796) ( -0.01200, -0.02626)
   0 141   28945.4    345.5      0.05503 (  0.00241,  0.00393) (  0.00078,  0.00127) ( -0.00132, -0.00215)
   0 142   28954.5    345.4      0.05721 ( -0.00170, -0.00096) ( -0.00049, -0.00028) (  0.00318,  0.00180)
   0 143   28980.9    345.1      0.44728 (  0.00262, -0.00342) ( -0.01164,  0.01517) ( -0.00716,  0.00933)
   0 144   29033.4    344.4      0.17649 (  0.00215,  0.00100) ( -0.00739, -0.00343) ( -0.00547, -0.00254)
   0 145   29040.7    344.3      0.02819 ( -0.00068, -0.00198) ( -0.00084, -0.00243) ( -0.00019, -0.00056)
   0 146   29050.2    344.2      0.62708 ( -0.00351,  0.00124) (  0.02053, -0.00725) (  0.00972, -0.00343)
   0 147   29093.8    343.7     -2.31977 (  0.00193,  0.00257) (  0.01861,  0.02479) (  0.00699,  0.00931)
   0 148   29155.7    343.0      0.08045 ( -0.03574,  0.00923) (  0.04144, -0.01071) (  0.06121, -0.01582)
   0 149   29176.3    342.7      2.54520 (  0.00040, -0.00022) (  0.06344, -0.03447) (  0.02308, -0.01254)
   0 150   29330.1    340.9      0.00815 ( -0.00003,  0.00061) ( -0.00010,  0.00203) ( -0.00011,  0.00228)
   0 151   29333.0    340.9     -0.12984 ( -0.00436, -0.00650) (  0.00404,  0.00604) (  0.00080,  0.00119)
   0 152   29349.4    340.7     -0.30506 ( -0.00990,  0.00224) ( -0.01166,  0.00264) (  0.00522, -0.00118)
   0 153   29585.3    338.0      0.01115 (  0.00119,  0.00425) (  0.00247,  0.00884) ( -0.00019, -0.00067)
   0 154   29600.8    337.8      8.24421 (  0.00051,  0.00257) (  0.01770,  0.08999) (  0.00178,  0.00906)
   0 155   29610.4    337.7      0.29699 ( -0.00826, -0.00400) ( -0.00911, -0.00442) ( -0.00239, -0.00116)
   0 156   29633.0    337.5     -0.21901 ( -0.00193,  0.01045) ( -0.00002,  0.00009) ( -0.00176,  0.00951)
   0 157   29679.0    336.9      0.02327 ( -0.00148, -0.00069) ( -0.00355, -0.00165) (  0.00102,  0.00047)
   0 158   29685.3    336.9     -0.09373 (  0.00103,  0.00163) ( -0.00697, -0.01103) (  0.00324,  0.00512)
   0 159   29700.9    336.7      0.06367 ( -0.00404,  0.00313) ( -0.00757,  0.00587) ( -0.00070,  0.00054)
   0 160   29757.0    336.1      1.94560 ( -0.02167,  0.02528) ( -0.02506,  0.02923) ( -0.00540,  0.00630)
   0 161   29772.8    335.9      0.20853 ( -0.00015, -0.00658) ( -0.00030, -0.01301) ( -0.00016, -0.00716)
   0 162   29783.3    335.8     -0.21007 ( -0.00005, -0.00025) ( -0.00355, -0.01782) (  0.00010,  0.00051)
   0 163   29792.1    335.7     -0.03905 (  0.00638,  0.00046) (  0.00271,  0.00020) ( -0.00192, -0.00014)
   0 164   29831.0    335.2     -0.00907 ( -0.00263, -0.00014) (  0.00247,  0.00013) (  0.00424,  0.00022)
   0 165   29878.0    334.7     -0.13152 (  0.00038, -0.00778) ( -0.00032,  0.00659) (  0.00018, -0.00371)
   0 166   29896.2    334.5     -0.19004 ( -0.00628, -0.00385) ( -0.00384, -0.00235) (  0.00566,  0.00347)
   0 167   29945.7    333.9      4.93161 (  0.04140, -0.04725) ( -0.01965,  0.02242) ( -0.01706,  0.01948)
   0 168   30010.5    333.2      0.06497 (  0.00041,  0.00781) ( -0.00042, -0.00800) ( -0.00032, -0.00608)
   0 169   30011.1    333.2      0.13636 (  0.00436,  0.00384) (  0.00016,  0.00014) (  0.00199,  0.00175)
   0 170   30013.3    333.2     -0.00016 ( -0.00450,  0.00227) (  0.00270, -0.00136) (  0.00228, -0.00115)
   0 171   30191.7    331.2      0.26075 (  0.01112, -0.00502) ( -0.00493,  0.00223) (  0.00036, -0.00016)
   0 172   30194.7    331.2     -0.06258 (  0.00795, -0.00167) ( -0.00402,  0.00085) ( -0.00553,  0.00116)
   0 173   30196.4    331.2     -0.04266 (  0.00011,  0.00293) ( -0.00000, -0.00006) ( -0.00009, -0.00249)
   0 174   30213.6    331.0      0.67145 ( -0.09625, -0.04263) ( -0.02730, -0.01209) ( -0.00435, -0.00193)
   0 175   30227.4    330.8     -0.25463 (  0.02242,  0.00156) (  0.01200,  0.00084) (  0.00439,  0.00031)
   0 176   30236.8    330.7     -0.05391 (  0.01364,  0.01898) (  0.00880,  0.01225) ( -0.00007, -0.00009)
   0 177   30246.7    330.6      0.06905 (  0.00147,  0.00045) ( -0.00547, -0.00166) ( -0.00489, -0.00149)
   0 178   30253.5    330.5      0.22532 ( -0.00335,  0.00434) ( -0.00744,  0.00964) ( -0.00803,  0.01040)
   0 179   30259.9    330.5     -0.01271 (  0.00311,  0.00004) (  0.00412,  0.00005) ( -0.00222, -0.00003)
   0 180   30291.1    330.1      0.23545 ( -0.00383,  0.00555) (  0.01103, -0.01597) ( -0.00098,  0.00142)
   0 181   30313.6    329.9      8.03071 (  0.01174, -0.07977) ( -0.01631,  0.11087) ( -0.00635,  0.04316)
   0 182   30334.7    329.7      1.82667 (  0.01234,  0.01658) ( -0.01388, -0.01864) ( -0.00717, -0.00963)
   0 183   30364.0    329.3     -0.08406 ( -0.00339,  0.00491) (  0.00107, -0.00155) (  0.00327, -0.00472)
   0 184   30367.0    329.3      0.13907 ( -0.00940,  0.00137) (  0.01016, -0.00148) (  0.00719, -0.00105)
   0 185   30422.6    328.7      0.28816 ( -0.00418, -0.00295) (  0.00887,  0.00626) (  0.00271,  0.00191)
   0 186   30424.3    328.7      0.01785 ( -0.00113,  0.00198) ( -0.00144,  0.00253) ( -0.00022,  0.00038)
   0 187   30431.8    328.6      0.07891 (  0.00264, -0.00213) ( -0.00310,  0.00251) ( -0.00034,  0.00027)
   0 188   30472.2    328.2      1.85494 (  0.00301,  0.04677) (  0.00374,  0.05804) ( -0.00197, -0.03057)
   0 189   30473.9    328.2      3.68330 ( -0.03952, -0.01182) ( -0.08744, -0.02615) (  0.02920,  0.00873)
   0 190   30483.0    328.1      0.17335 ( -0.01609, -0.00792) ( -0.01626, -0.00800) (  0.01268,  0.00624)
   0 191   30484.2    328.0      0.12717 ( -0.00282,  0.00943) ( -0.00207,  0.00693) (  0.00041, -0.00139)
   0 192   30549.7    327.3      1.92411 (  0.02295,  0.02225) ( -0.01597, -0.01548) ( -0.02648, -0.02567)
   0 193   30554.3    327.3      0.68632 ( -0.01245, -0.00341) (  0.01064,  0.00291) (  0.02289,  0.00627)
   0 194   30564.3    327.2      0.00410 ( -0.00266,  0.00357) ( -0.00057,  0.00076) (  0.00350, -0.00470)
   0 195   30564.8    327.2     -0.06791 ( -0.00060, -0.00043) (  0.00655,  0.00469) ( -0.00130, -0.00093)
   0 196   30627.9    326.5      0.36027 ( -0.00286,  0.00810) (  0.00155, -0.00439) ( -0.00008,  0.00022)
   0 197   30642.2    326.3      0.06339 ( -0.00745, -0.00120) (  0.00521,  0.00084) (  0.01114,  0.00179)
   0 198   30645.4    326.3     -0.00384 ( -0.00001, -0.00032) ( -0.00005, -0.00284) (  0.00000,  0.00007)
   0 199   30665.1    326.1     -2.02913 ( -0.05605, -0.00189) (  0.02144,  0.00072) (  0.07361,  0.00248)
   0 200   30710.7    325.6     -2.80323 ( -0.08485,  0.07084) (  0.08032, -0.06706) (  0.11493, -0.09596)
   0 201   30777.6    324.9      0.15839 (  0.00025, -0.00561) ( -0.00007,  0.00155) (  0.00012, -0.00268)
   0 202   30779.6    324.9     -0.04557 ( -0.00328, -0.00297) (  0.00465,  0.00420) (  0.00528,  0.00477)
   0 203   30779.8    324.9     -0.04386 (  0.00160, -0.00540) ( -0.00102,  0.00345) ( -0.00199,  0.00671)
   0 204   30798.9    324.7     -2.71882 ( -0.04530, -0.04077) (  0.03284,  0.02955) (  0.05349,  0.04814)
   0 205   30849.9    324.2     -1.76639 ( -0.01039, -0.01172) (  0.01824,  0.02058) (  0.04511,  0.05089)
   0 206   30898.1    323.6      0.13764 (  0.00089, -0.00212) ( -0.00075,  0.00179) (  0.00053, -0.00125)
   0 207   30907.5    323.5     -0.16554 ( -0.00215,  0.00398) (  0.00410, -0.00758) (  0.00411, -0.00759)
   0 208   30911.9    323.5      0.03128 (  0.00115,  0.00122) ( -0.00620, -0.00659) ( -0.00665, -0.00707)
   0 209   31038.1    322.2     11.02049 ( -0.01194, -0.00135) (  0.08946,  0.01011) (  0.03712,  0.00420)
   0 210   31083.5    321.7      1.15517 ( -0.02028, -0.00799) (  0.01934,  0.00762) (  0.01176,  0.00464)
   0 211   31109.3    321.4      0.14348 ( -0.00323,  0.00573) (  0.00080, -0.00142) (  0.00230, -0.00408)
   0 212   31136.2    321.2      0.78260 ( -0.03995, -0.01861) (  0.04027,  0.01876) (  0.02953,  0.01376)
   0 213   31184.1    320.7      0.77444 ( -0.01199, -0.00858) (  0.02864,  0.02049) (  0.04024,  0.02880)
   0 214   31192.3    320.6      0.17600 (  0.01685,  0.00432) (  0.01298,  0.00333) (  0.01207,  0.00310)
   0 215   31193.7    320.6     -0.11318 (  0.00901, -0.00250) (  0.00041, -0.00011) ( -0.00352,  0.00098)
   0 216   31195.7    320.6      0.33567 (  0.00324,  0.01387) ( -0.00434, -0.01854) ( -0.00867, -0.03706)
   0 217   31211.4    320.4    -10.18326 ( -0.01135,  0.07055) ( -0.00097,  0.00600) (  0.01030, -0.06405)
   0 218   31232.8    320.2      0.81398 (  0.02299,  0.01259) ( -0.01032, -0.00565) ( -0.04574, -0.02505)
   0 219   31245.5    320.0      2.56501 ( -0.01625,  0.02146) ( -0.01326,  0.01751) (  0.02792, -0.03686)
   0 220   31258.2    319.9      1.24270 (  0.00589, -0.00305) (  0.00089, -0.00046) ( -0.02349,  0.01216)
   0 221   31288.3    319.6     -1.49874 (  0.02930,  0.02775) (  0.03392,  0.03212) ( -0.02159, -0.02044)
   0 222   31341.5    319.1      2.44828 (  0.00088, -0.00624) (  0.00609, -0.04303) (  0.00105, -0.00742)
   0 223   31370.5    318.8      0.13798 ( -0.00750, -0.00081) ( -0.00230, -0.00025) (  0.00995,  0.00107)
   0 224   31374.2    318.7     -1.87411 (  0.00071, -0.00061) (  0.01162, -0.00998) (  0.02459, -0.02111)
   0 225   31410.6    318.4      2.12483 ( -0.00027,  0.00658) ( -0.00145,  0.03542) (  0.00016, -0.00389)
   0 226   31464.8    317.8      0.09656 ( -0.00451, -0.00000) (  0.00408,  0.00000) (  0.00071,  0.00000)
   0 227   31466.6    317.8      0.03175 ( -0.00001, -0.00000) (  0.00394,  0.00029) (  0.00256,  0.00019)
   0 228   31469.7    317.8      0.15639 ( -0.00011,  0.00177) ( -0.00067,  0.01081) (  0.00006, -0.00092)
   0 229   31672.9    315.7     25.52850 ( -0.07342, -0.03367) (  0.03543,  0.01625) (  0.01211,  0.00556)
   0 230   32076.4    311.8      8.90439 (  0.00677,  0.00787) (  0.04262,  0.04959) (  0.03186,  0.03707)
   0 231   32314.3    309.5     -4.28753 (  0.04696,  0.00452) (  0.05912,  0.00570) ( -0.04269, -0.00411)
   0 232   32468.1    308.0      2.55160 (  0.06498,  0.01789) (  0.02131,  0.00587) (  0.05139,  0.01415)
   0 233   32651.6    306.3     18.23623 ( -0.14778,  0.02943) (  0.13515, -0.02692) ( -0.11753,  0.02341)
   0 234   32720.3    305.6    -40.04054 (  0.14370,  0.08125) (  0.16599,  0.09386) ( -0.03841, -0.02172)
   0 235   32860.8    304.3     10.94652 ( -0.06907,  0.00493) (  0.06317, -0.00451) (  0.16880, -0.01206)
   0 236   32995.9    303.1     19.34444 ( -0.00682, -0.02896) (  0.02072,  0.08804) (  0.03840,  0.16317)
   0 237   33178.6    301.4    -43.01924 ( -0.04893,  0.21568) (  0.01324, -0.05836) (  0.04226, -0.18629)
   0 238   33275.6    300.5    -27.91504 ( -0.04732,  0.01933) (  0.15486, -0.06326) (  0.06685, -0.02731)
   0 239   33494.7    298.6     -8.20538 (  0.01563,  0.13355) ( -0.01758, -0.15024) ( -0.02897, -0.24755)
   0 240   33620.2    297.4      1.06384 (  0.00021, -0.00060) ( -0.01172,  0.03387) (  0.00001, -0.00002)

*The complex numbers are printed as (real, imaginary)

The electronic components of the SOC ground state dipole moment in a.u. are:
           X                     Y                     Z
( 18.02966,  0.00000) ( -1.85683,  0.00000) ( 10.53553, -0.00000)

Total run time:     2204.143 sec

           *** ORCA-CIS/TD-DFT FINISHED WITHOUT ERROR ***

Maximum memory used throughout the entire CIS-calculation: 6358.9 MB

---------------------------
SOC CIS/TD-DFT TOTAL ENERGY
---------------------------

    E(SCF)        =  -6410.085704561 Eh
    E(SOC CIS)    =      0.071509908 Eh (SOC Root  1)
    ----------------------------- ---------
    E(tot)        =  -6410.014194653 Eh


-------------------------   --------------------
FINAL SINGLE POINT ENERGY     -6410.014194653339
-------------------------   --------------------


                            ***************************************
                            *     ORCA property calculations      *
                            ***************************************

                                    ---------------------
                                    Active property flags
                                    ---------------------
   (+) Dipole Moment


------------------------------------------------------------------------------
                       ORCA ELECTRIC PROPERTIES CALCULATION
------------------------------------------------------------------------------

Dipole Moment Calculation                       ... on
Quadrupole Moment Calculation                   ... off
Polarizability Calculation                      ... off
GBWName                                         ... Ru-PRC_2_SOC-M06L_def2SVP.gbw
Electron density                                ... Ru-PRC_2_SOC-M06L_def2SVP.scfp
The origin for moment calculation is the CENTER OF MASS  = ( 0.048935, -0.006031  0.029029)

-------------
DIPOLE MOMENT
-------------
                                X             Y             Z
Electronic contribution:     18.02103      -1.85485      10.53066
Nuclear contribution   :    -17.02955       2.09889     -10.10199
                        -----------------------------------------
Total Dipole Moment    :      0.99148       0.24404       0.42867
                        -----------------------------------------
Magnitude (a.u.)       :      1.10740
Magnitude (Debye)      :      2.81479



--------------------
Rotational spectrum 
--------------------
 
Rotational constants in cm-1:     0.002931     0.002526     0.002104 
Rotational constants in MHz :    87.864409    75.721626    63.072758 

 Dipole components along the rotational axes: 
x,y,z [a.u.] :    -0.986050     0.238903     0.443811 
x,y,z [Debye]:    -2.506341     0.607243     1.128077 

 

Timings for individual modules:

Sum of individual times         ...     2380.009 sec (=  39.667 min)
GTO integral calculation        ...        2.771 sec (=   0.046 min)   0.1 %
Relativistic integrals          ...       23.917 sec (=   0.399 min)   1.0 %
SCF iterations                  ...      148.789 sec (=   2.480 min)   6.3 %
CIS module                      ...     2204.531 sec (=  36.742 min)  92.6 %
                             ****ORCA TERMINATED NORMALLY****
TOTAL RUN TIME: 0 days 0 hours 39 minutes 41 seconds 48 msec
