
                                 *****************
                                 * O   R   C   A *
                                 *****************

                                            #,                                       
                                            ###                                      
                                            ####                                     
                                            #####                                    
                                            ######                                   
                                           ########,                                 
                                     ,,################,,,,,                         
                               ,,#################################,,                 
                          ,,##########################################,,             
                       ,#########################################, ''#####,          
                    ,#############################################,,   '####,        
                  ,##################################################,,,,####,       
                ,###########''''           ''''###############################       
              ,#####''   ,,,,##########,,,,          '''####'''          '####       
            ,##' ,,,,###########################,,,                        '##       
           ' ,,###''''                  '''############,,,                           
         ,,##''                                '''############,,,,        ,,,,,,###''
      ,#''                                            '''#######################'''  
     '                                                          ''''####''''         
             ,#######,   #######,   ,#######,      ##                                
            ,#'     '#,  ##    ##  ,#'     '#,    #''#        ######   ,####,        
            ##       ##  ##   ,#'  ##            #'  '#       #        #'  '#        
            ##       ##  #######   ##           ,######,      #####,   #    #        
            '#,     ,#'  ##    ##  '#,     ,#' ,#      #,         ##   #,  ,#        
             '#######'   ##     ##  '#######'  #'      '#     #####' # '####'        



                  #######################################################
                  #                        -***-                        #
                  #          Department of theory and spectroscopy      #
                  #    Directorship and core code : Frank Neese         #
                  #        Max Planck Institute fuer Kohlenforschung    #
                  #                Kaiser Wilhelm Platz 1               #
                  #                 D-45470 Muelheim/Ruhr               #
                  #                      Germany                        #
                  #                                                     #
                  #                  All rights reserved                #
                  #                        -***-                        #
                  #######################################################


                         Program Version 5.0.4 -  RELEASE  -


 With contributions from (in alphabetic order):
   Daniel Aravena         : Magnetic Suceptibility
   Michael Atanasov       : Ab Initio Ligand Field Theory (pilot matlab implementation)
   Alexander A. Auer      : GIAO ZORA, VPT2 properties, NMR spectrum
   Ute Becker             : Parallelization
   Giovanni Bistoni       : ED, misc. LED, open-shell LED, HFLD
   Martin Brehm           : Molecular dynamics
   Dmytro Bykov           : SCF Hessian
   Vijay G. Chilkuri      : MRCI spin determinant printing, contributions to CSF-ICE
   Dipayan Datta          : RHF DLPNO-CCSD density
   Achintya Kumar Dutta   : EOM-CC, STEOM-CC
   Dmitry Ganyushin       : Spin-Orbit,Spin-Spin,Magnetic field MRCI
   Miquel Garcia          : C-PCM and meta-GGA Hessian, CC/C-PCM, Gaussian charge scheme
   Yang Guo               : DLPNO-NEVPT2, F12-NEVPT2, CIM, IAO-localization
   Andreas Hansen         : Spin unrestricted coupled pair/coupled cluster methods
   Benjamin Helmich-Paris : MC-RPA, TRAH-SCF, COSX integrals
   Lee Huntington         : MR-EOM, pCC
   Robert Izsak           : Overlap fitted RIJCOSX, COSX-SCS-MP3, EOM
   Marcus Kettner         : VPT2
   Christian Kollmar      : KDIIS, OOCD, Brueckner-CCSD(T), CCSD density, CASPT2, CASPT2-K
   Simone Kossmann        : Meta GGA functionals, TD-DFT gradient, OOMP2, MP2 Hessian
   Martin Krupicka        : Initial AUTO-CI
   Lucas Lang             : DCDCAS
   Marvin Lechner         : AUTO-CI (C++ implementation), FIC-MRCC
   Dagmar Lenk            : GEPOL surface, SMD
   Dimitrios Liakos       : Extrapolation schemes; Compound Job, initial MDCI parallelization
   Dimitrios Manganas     : Further ROCIS development; embedding schemes
   Dimitrios Pantazis     : SARC Basis sets
   Anastasios Papadopoulos: AUTO-CI, single reference methods and gradients
   Taras Petrenko         : DFT Hessian,TD-DFT gradient, ASA, ECA, R-Raman, ABS, FL, XAS/XES, NRVS
   Peter Pinski           : DLPNO-MP2, DLPNO-MP2 Gradient
   Christoph Reimann      : Effective Core Potentials
   Marius Retegan         : Local ZFS, SOC
   Christoph Riplinger    : Optimizer, TS searches, QM/MM, DLPNO-CCSD(T), (RO)-DLPNO pert. Triples
   Tobias Risthaus        : Range-separated hybrids, TD-DFT gradient, RPA, STAB
   Michael Roemelt        : Original ROCIS implementation
   Masaaki Saitow         : Open-shell DLPNO-CCSD energy and density
   Barbara Sandhoefer     : DKH picture change effects
   Avijit Sen             : IP-ROCIS
   Kantharuban Sivalingam : CASSCF convergence, NEVPT2, FIC-MRCI
   Bernardo de Souza      : ESD, SOC TD-DFT
   Georgi Stoychev        : AutoAux, RI-MP2 NMR, DLPNO-MP2 response
   Willem Van den Heuvel  : Paramagnetic NMR
   Boris Wezisla          : Elementary symmetry handling
   Frank Wennmohs         : Technical directorship


 We gratefully acknowledge several colleagues who have allowed us to
 interface, adapt or use parts of their codes:
   Stefan Grimme, W. Hujo, H. Kruse, P. Pracht,  : VdW corrections, initial TS optimization,
                  C. Bannwarth, S. Ehlert          DFT functionals, gCP, sTDA/sTD-DF
   Ed Valeev, F. Pavosevic, A. Kumar             : LibInt (2-el integral package), F12 methods
   Garnet Chan, S. Sharma, J. Yang, R. Olivares  : DMRG
   Ulf Ekstrom                                   : XCFun DFT Library
   Mihaly Kallay                                 : mrcc  (arbitrary order and MRCC methods)
   Jiri Pittner, Ondrej Demel                    : Mk-CCSD
   Frank Weinhold                                : gennbo (NPA and NBO analysis)
   Christopher J. Cramer and Donald G. Truhlar   : smd solvation model
   Lars Goerigk                                  : TD-DFT with DH, B97 family of functionals
   V. Asgeirsson, H. Jonsson                     : NEB implementation
   FAccTs GmbH                                   : IRC, NEB, NEB-TS, DLPNO-Multilevel, CI-OPT
                                                   MM, QMMM, 2- and 3-layer-ONIOM, Crystal-QMMM,
                                                   LR-CPCM, SF, NACMEs, symmetry and pop. for TD-DFT,
                                                   nearIR, NL-DFT gradient (VV10), updates on ESD,
                                                   ML-optimized integration grids
   S Lehtola, MJT Oliveira, MAL Marques          : LibXC Library
   Liviu Ungur et al                             : ANISO software


 Your calculation uses the libint2 library for the computation of 2-el integrals
 For citations please refer to: http://libint.valeyev.net

 Your ORCA version has been built with support for libXC version: 5.1.0
 For citations please refer to: https://tddft.org/programs/libxc/

 This ORCA versions uses:
   CBLAS   interface :  Fast vector & matrix operations
   LAPACKE interface :  Fast linear algebra routines
   SCALAPACK package :  Parallel linear algebra routines
   Shared memory     :  Shared parallel matrices
   BLAS/LAPACK       :  OpenBLAS 0.3.15  USE64BITINT DYNAMIC_ARCH NO_AFFINITY Zen SINGLE_THREADED
        Core in use  :  Zen
   Copyright (c) 2011-2014, The OpenBLAS Project


Your calculation utilizes the SMD solvation module
Please cite in your paper:
A.V. Marenich, C.J. Cramer, D.G. Truhlar J. Phys. Chem. B, 113, (2009), 6378 

================================================================================

cite the ECPs for Ru [Def2-ECP] as follows:
Ce-Yb(ecp-28): M. Dolg, H. Stoll, H.Preuss, J. Chem. Phys., 1989, 90, 1730-1734.
Y-Cd(ecp-28), Hf-Hg(ecp-46): D. Andrae,U. Haeussermann, M. Dolg, H. Stoll, H. Preuss, Theor. Chim. Acta, 1990, 77, 123-141.
In-Sb(ecp-28), Tl-Bi(ecp-46): B. Metz, H. Stoll, M. Dolg, J. Chem. Phys., 2000, 113, 2563-2569.
Te-Xe(ecp-28), Po-Rn(ecp-46): K. A. Peterson, D. Figgen, E. Goll, H. Stoll, M. Dolg, J. Chem. Phys., 2003, 119, 11113-11123.
Rb(ecp-28), Cs(ecp-46): T. Leininger, A. Nicklass, W. Kuechle, H. Stoll, M. Dolg, A. Bergner, Chem. Phys. Lett., 1996, 255, 274-280.
Sr(ecp-28), Ba(ecp-46): M. Kaupp, P. V. Schleyer, H. Stoll and H. Preuss, J. Chem. Phys., 1991, 94, 1360-1366.
La(ecp-46): M. Dolg, H. Stoll, A. Savin, H. Preuss, Theor. Chim. Acta, 1989, 75, 173-194.
Lu(ecp-28): X. Cao, M. Dolg, J. Chem. Phys., 2001, 115, 7348-7355.

ECP parameters for Ru [Def2-ECP] have been obtained from:
TURBOMOLE (7.0.2)

----- Orbital basis set information -----
Your calculation utilizes the basis: def2-SVP
   F. Weigend and R. Ahlrichs, Phys. Chem. Chem. Phys. 7, 3297 (2005).

----- AuxJ basis set information -----
Your calculation utilizes the auxiliary basis: def2/J
   F. Weigend, Phys. Chem. Chem. Phys. 8, 1057 (2006).

----- AuxC basis set information -----
Your calculation utilizes the auxiliary basis: def2-SVP/C
  H-La, Hf-Rn : A. Hellweg, C. Hattig, S. Hofener and W. Klopper, Theor. Chem. Acc. 117, 587 (2007).
        Ce-Lu : J. Chmela and M. E. Harding, Mol. Phys. (2018).

================================================================================
                                        WARNINGS
                       Please study these warnings very carefully!
================================================================================

INFO   : Checking CIS options ...
  ===> : (D) CORRECTION FOUND - SETTING MODE=3
  ===> : JK MODE FOUND - ACTIVATING RI-MP2 CODE
  ===> : MP2 AND CIS FOUND - CHECKING
WARNING: CIS(D) and MP2 runs must have the same orbital window
  ===> : adjusting orbital windows

WARNING: No MP2 level density has been requested!
         To caclulate MP2 level properties use
         %mp2 Density relaxed end
         or
         %mp2 Density unrelaxed end
         Otherwise for double-hybrid DFT only the energy is correct!

WARNING: The frozen-core approximation is turned on by default for 
         the MP2 part of double-hybrid DFT.

WARNING:  You are using a Range-Separated Double Hybrid functional with Doubles Correction 
          Changing Mode to RPA_AOINTS 


WARNING: CIS/ROCIS methods need fully converged wavefunctions
  ===> : Setting SCFConvForced true
         You can overwrite this default with %scf ConvForced false 


INFO   : the flag for use of the SHARK integral package has been found!

================================================================================
                                       INPUT FILE
================================================================================
NAME = Ru-PRC_2_SOS-wPBEPP86_def2SVP.inp
|  1> %maxcore 8000
|  2> %pal
|  3>  nprocs 8
|  4> end
|  5> ! RI-SOS-wPBEPP86 def2-SVP def2/J def2-SVP/C RIJCOSX CPCM TIGHTSCF
|  6> 
|  7> %TDDFT 
|  8>     DCORR     1
|  9>     NROOTS    40
| 10>     doscs     TRUE
| 11>     TDA       FALSE
| 12> END
| 13> 
| 14> %CPCM
| 15>     SMD		TRUE
| 16>     SMDsolvent	"DMF"
| 17> END
| 18> 
| 19> * xyz 2 1
| 20> C                  -1.67762600   -2.06917600    0.26663300
| 21> C                  -2.41976900   -0.35506600   -1.10525600
| 22> C                  -3.64054900   -1.01297700   -1.38146000
| 23> C                  -3.83977500   -2.26012400   -0.78603600
| 24> C                  -2.86017500   -2.81414300    0.05348900
| 25> C                  -0.64603500   -2.57041500    1.10931800
| 26> C                   1.44308500   -2.22864100    2.05449600
| 27> C                   1.37107100   -3.45610900    2.72594600
| 28> C                   0.25377000   -4.25800100    2.57879900
| 29> C                  -0.79899200   -3.82255400    1.74914100
| 30> H                  -2.20348800    0.61917600   -1.54629500
| 31> H                  -4.75670000   -2.82685600   -0.95693900
| 32> H                   2.31664400   -1.58092100    2.16092700
| 33> H                   2.20519900   -3.76067100    3.35881600
| 34> H                   0.17640700   -5.21804400    3.09326600
| 35> C                  -0.67339700    2.70837900   -0.05312000
| 36> C                   0.28364100    2.10199200   -2.07678600
| 37> C                  -0.06962300    3.33263900   -2.64593400
| 38> C                  -0.74150200    4.27374300   -1.88863600
| 39> C                  -1.06092100    3.97552600   -0.54795300
| 40> C                  -0.98229700    2.33684100    1.28747800
| 41> C                  -0.86513200    0.71554500    2.94084800
| 42> C                  -1.52816500    1.55169900    3.84900700
| 43> C                  -1.93001300    2.81414400    3.45518900
| 44> C                  -1.66090300    3.24064700    2.13824800
| 45> H                   0.81430900    1.34564600   -2.66004600
| 46> H                   0.19565500    3.52842800   -3.68531800
| 47> H                  -1.02608800    5.23987000   -2.31036100
| 48> H                  -0.54138600   -0.28590700    3.23440100
| 49> H                  -1.72009400    1.18704000    4.85864000
| 50> H                  -2.45085000    3.48178900    4.14451300
| 51> C                   3.23412000    0.19880600   -0.22862400
| 52> C                   2.68339500    1.39646100    1.67891500
| 53> C                   4.02351900    1.75439600    1.87621500
| 54> C                   4.99043500    1.31827600    0.98984900
| 55> C                   4.60716500    0.51520700   -0.10406100
| 56> C                   2.77992400   -0.61361700   -1.30748600
| 57> C                   0.98382300   -1.63523300   -2.36009000
| 58> C                   1.82485800   -2.15757100   -3.35148700
| 59> C                   3.18147600   -1.89533500   -3.31194000
| 60> C                   3.69765300   -1.10225100   -2.26646500
| 61> H                   1.90544100    1.73094300    2.36951600
| 62> H                   6.04067700    1.58549700    1.12343700
| 63> H                  -0.09133400   -1.82982300   -2.37615000
| 64> H                   3.85546200   -2.29168000   -4.07407900
| 65> N                   2.29071800    0.63576100    0.65528400
| 66> N                   0.46103900   -1.78766600    1.26545600
| 67> N                  -0.59313200    1.09239100    1.69009600
| 68> N                  -1.47103100   -0.85747600   -0.31699100
| 69> N                  -0.01102000    1.78870800   -0.81332900
| 70> N                   1.44226000   -0.87808700   -1.36144800
| 71> Ru                  0.36080900   -0.00017200    0.18929900
| 72> C                   5.51802000    0.00759000   -1.08472300
| 73> C                   5.08178500   -0.76686700   -2.12215900
| 74> C                  -2.00317200   -4.56431000    1.51982500
| 75> C                  -2.99008000   -4.08297000    0.70778800
| 76> C                  -2.03492300    4.52072000    1.61867400
| 77> C                  -1.75019700    4.87194600    0.32958100
| 78> H                   5.78528600   -1.14774300   -2.86536700
| 79> H                   6.57648500    0.25619200   -0.98346900
| 80> H                  -3.90321000   -4.65855900    0.54243700
| 81> H                  -2.11475400   -5.53118100    2.01503300
| 82> H                  -2.04404200    5.84954600   -0.05820200
| 83> H                  -2.55962000    5.21304700    2.28029100
| 84> H                   4.28251500    2.37741300    2.73292400
| 85> H                   1.39050900   -2.76799900   -4.14390000
| 86> C                  -4.63221300   -0.36219000   -2.26657700
| 87> C                  -5.80902100   -0.94423200   -2.56200300
| 88> H                  -6.10834500   -1.92100400   -2.17663300
| 89> H                  -6.52586300   -0.44316400   -3.21675100
| 90> C                  -4.28434800    0.98137800   -2.82737800
| 91> H                  -4.09873700    1.72172300   -2.03314000
| 92> H                  -3.36834600    0.94781100   -3.43802900
| 93> H                  -5.09264700    1.36665600   -3.45976600
| 94> *
| 95> 
| 96>                          ****END OF INPUT****
================================================================================

                       ****************************
                       * Single Point Calculation *
                       ****************************

---------------------------------
CARTESIAN COORDINATES (ANGSTROEM)
---------------------------------
  C     -1.677626   -2.069176    0.266633
  C     -2.419769   -0.355066   -1.105256
  C     -3.640549   -1.012977   -1.381460
  C     -3.839775   -2.260124   -0.786036
  C     -2.860175   -2.814143    0.053489
  C     -0.646035   -2.570415    1.109318
  C      1.443085   -2.228641    2.054496
  C      1.371071   -3.456109    2.725946
  C      0.253770   -4.258001    2.578799
  C     -0.798992   -3.822554    1.749141
  H     -2.203488    0.619176   -1.546295
  H     -4.756700   -2.826856   -0.956939
  H      2.316644   -1.580921    2.160927
  H      2.205199   -3.760671    3.358816
  H      0.176407   -5.218044    3.093266
  C     -0.673397    2.708379   -0.053120
  C      0.283641    2.101992   -2.076786
  C     -0.069623    3.332639   -2.645934
  C     -0.741502    4.273743   -1.888636
  C     -1.060921    3.975526   -0.547953
  C     -0.982297    2.336841    1.287478
  C     -0.865132    0.715545    2.940848
  C     -1.528165    1.551699    3.849007
  C     -1.930013    2.814144    3.455189
  C     -1.660903    3.240647    2.138248
  H      0.814309    1.345646   -2.660046
  H      0.195655    3.528428   -3.685318
  H     -1.026088    5.239870   -2.310361
  H     -0.541386   -0.285907    3.234401
  H     -1.720094    1.187040    4.858640
  H     -2.450850    3.481789    4.144513
  C      3.234120    0.198806   -0.228624
  C      2.683395    1.396461    1.678915
  C      4.023519    1.754396    1.876215
  C      4.990435    1.318276    0.989849
  C      4.607165    0.515207   -0.104061
  C      2.779924   -0.613617   -1.307486
  C      0.983823   -1.635233   -2.360090
  C      1.824858   -2.157571   -3.351487
  C      3.181476   -1.895335   -3.311940
  C      3.697653   -1.102251   -2.266465
  H      1.905441    1.730943    2.369516
  H      6.040677    1.585497    1.123437
  H     -0.091334   -1.829823   -2.376150
  H      3.855462   -2.291680   -4.074079
  N      2.290718    0.635761    0.655284
  N      0.461039   -1.787666    1.265456
  N     -0.593132    1.092391    1.690096
  N     -1.471031   -0.857476   -0.316991
  N     -0.011020    1.788708   -0.813329
  N      1.442260   -0.878087   -1.361448
  Ru     0.360809   -0.000172    0.189299
  C      5.518020    0.007590   -1.084723
  C      5.081785   -0.766867   -2.122159
  C     -2.003172   -4.564310    1.519825
  C     -2.990080   -4.082970    0.707788
  C     -2.034923    4.520720    1.618674
  C     -1.750197    4.871946    0.329581
  H      5.785286   -1.147743   -2.865367
  H      6.576485    0.256192   -0.983469
  H     -3.903210   -4.658559    0.542437
  H     -2.114754   -5.531181    2.015033
  H     -2.044042    5.849546   -0.058202
  H     -2.559620    5.213047    2.280291
  H      4.282515    2.377413    2.732924
  H      1.390509   -2.767999   -4.143900
  C     -4.632213   -0.362190   -2.266577
  C     -5.809021   -0.944232   -2.562003
  H     -6.108345   -1.921004   -2.176633
  H     -6.525863   -0.443164   -3.216751
  C     -4.284348    0.981378   -2.827378
  H     -4.098737    1.721723   -2.033140
  H     -3.368346    0.947811   -3.438029
  H     -5.092647    1.366656   -3.459766

----------------------------
CARTESIAN COORDINATES (A.U.)
----------------------------
  NO LB      ZA    FRAG     MASS         X           Y           Z
   0 C     6.0000    0    12.011   -3.170254   -3.910176    0.503863
   1 C     6.0000    0    12.011   -4.572701   -0.670977   -2.088631
   2 C     6.0000    0    12.011   -6.879641   -1.914249   -2.610581
   3 C     6.0000    0    12.011   -7.256123   -4.271015   -1.485393
   4 C     6.0000    0    12.011   -5.404947   -5.317960    0.101080
   5 C     6.0000    0    12.011   -1.220829   -4.857380    2.096307
   6 C     6.0000    0    12.011    2.727035   -4.211521    3.882435
   7 C     6.0000    0    12.011    2.590949   -6.531099    5.151291
   8 C     6.0000    0    12.011    0.479556   -8.046456    4.873224
   9 C     6.0000    0    12.011   -1.509876   -7.223580    3.305397
  10 H     1.0000    0     1.008   -4.163989    1.170073   -2.922074
  11 H     1.0000    0     1.008   -8.988860   -5.341984   -1.808353
  12 H     1.0000    0     1.008    4.377823   -2.987508    4.083560
  13 H     1.0000    0     1.008    4.167222   -7.106638    6.347242
  14 H     1.0000    0     1.008    0.333361   -9.860674    5.845426
  15 C     6.0000    0    12.011   -1.272536    5.118095   -0.100382
  16 C     6.0000    0    12.011    0.536004    3.972189   -3.924557
  17 C     6.0000    0    12.011   -0.131568    6.297775   -5.000091
  18 C     6.0000    0    12.011   -1.401236    8.076204   -3.569005
  19 C     6.0000    0    12.011   -2.004850    7.512655   -1.035481
  20 C     6.0000    0    12.011   -1.856272    4.415990    2.432981
  21 C     6.0000    0    12.011   -1.634863    1.352184    5.557397
  22 C     6.0000    0    12.011   -2.887813    2.932286    7.273569
  23 C     6.0000    0    12.011   -3.647196    5.317961    6.529361
  24 C     6.0000    0    12.011   -3.138652    6.123935    4.040703
  25 H     1.0000    0     1.008    1.538821    2.542902   -5.026758
  26 H     1.0000    0     1.008    0.369734    6.667763   -6.964242
  27 H     1.0000    0     1.008   -1.939025    9.901919   -4.365950
  28 H     1.0000    0     1.008   -1.023071   -0.540286    6.112132
  29 H     1.0000    0     1.008   -3.250507    2.243181    9.181499
  30 H     1.0000    0     1.008   -4.631435    6.579628    7.831995
  31 C     6.0000    0    12.011    6.111601    0.375689   -0.432037
  32 C     6.0000    0    12.011    5.070882    2.638929    3.172690
  33 C     6.0000    0    12.011    7.603349    3.315328    3.545533
  34 C     6.0000    0    12.011    9.430555    2.491181    1.870544
  35 C     6.0000    0    12.011    8.706280    0.973600   -0.196647
  36 C     6.0000    0    12.011    5.253295   -1.159568   -2.470790
  37 C     6.0000    0    12.011    1.859156   -3.090143   -4.459924
  38 C     6.0000    0    12.011    3.448482   -4.077218   -6.333393
  39 C     6.0000    0    12.011    6.012118   -3.581664   -6.258660
  40 C     6.0000    0    12.011    6.987552   -2.082953   -4.282998
  41 H     1.0000    0     1.008    3.600762    3.271008    4.477736
  42 H     1.0000    0     1.008   11.415225    2.996155    2.122988
  43 H     1.0000    0     1.008   -0.172596   -3.457864   -4.490273
  44 H     1.0000    0     1.008    7.285767   -4.330648   -7.698894
  45 N     7.0000    0    14.007    4.328830    1.201414    1.238307
  46 N     7.0000    0    14.007    0.871237   -3.378199    2.391365
  47 N     7.0000    0    14.007   -1.120857    2.064320    3.193819
  48 N     7.0000    0    14.007   -2.779846   -1.620395   -0.599026
  49 N     7.0000    0    14.007   -0.020825    3.380168   -1.536969
  50 N     7.0000    0    14.007    2.725476   -1.659344   -2.572764
  51 Ru   16.0000*   0   101.070    0.681830   -0.000325    0.357723
  52 C     6.0000    0    12.011   10.427547    0.014343   -2.049829
  53 C     6.0000    0    12.011    9.603182   -1.449169   -4.010299
  54 C     6.0000    0    12.011   -3.785446   -8.625296    2.872053
  55 C     6.0000    0    12.011   -5.650432   -7.715695    1.337525
  56 C     6.0000    0    12.011   -3.845447    8.542923    3.058851
  57 C     6.0000    0    12.011   -3.307393    9.206644    0.622818
  58 H     1.0000    0     1.008   10.932606   -2.168920   -5.414759
  59 H     1.0000    0     1.008   12.427756    0.484133   -1.858487
  60 H     1.0000    0     1.008   -7.375998   -8.803401    1.025057
  61 H     1.0000    0     1.008   -3.996306  -10.452417    3.807861
  62 H     1.0000    0     1.008   -3.862680   11.054040   -0.109986
  63 H     1.0000    0     1.008   -4.836981    9.851231    4.309125
  64 H     1.0000    0     1.008    8.092781    4.492659    5.164478
  65 H     1.0000    0     1.008    2.627681   -5.230760   -7.830836
  66 C     6.0000    0    12.011   -8.753614   -0.684440   -4.283210
  67 C     6.0000    0    12.011  -10.977459   -1.784340   -4.841484
  68 H     1.0000    0     1.008  -11.543099   -3.630171   -4.113240
  69 H     1.0000    0     1.008  -12.332094   -0.837459   -6.078778
  70 C     6.0000    0    12.011   -8.096244    1.854536   -5.342970
  71 H     1.0000    0     1.008   -7.745490    3.253585   -3.842078
  72 H     1.0000    0     1.008   -6.365251    1.791103   -6.496933
  73 H     1.0000    0     1.008   -9.623708    2.582606   -6.538010
* core charge reduced due to ECP

--------------------------------
INTERNAL COORDINATES (ANGSTROEM)
--------------------------------
 C      0   0   0     0.000000000000     0.00000000     0.00000000
 C      1   0   0     2.317548004437     0.00000000     0.00000000
 C      2   1   0     1.414015325920    92.74923135     0.00000000
 C      3   2   1     1.396279477204   117.09525529   359.68700230
 C      4   3   2     1.404049656524   120.52216088     0.37070214
 C      1   2   3     1.423214156628   147.46841042   180.42545254
 C      6   1   2     2.318316909562   147.42111914     0.22254936
 C      7   6   1     1.400967098015    91.14104304   179.29531090
 C      8   7   6     1.383128534835   119.90094751     0.00000000
 C      9   8   7     1.409345349947   119.13821751     0.04560973
 H      2   1   3     1.091073024617   146.74413636   180.11454438
 H      4   3   2     1.091395643595   121.12511811   180.20541753
 H      7   6   1     1.092691211021   147.94286947   359.56987729
 H      8   7   6     1.090436595648   118.91790085   180.00377034
 H      9   8   7     1.091945003060   121.12064140   180.03926934
 C     11   2   1     2.989233885817   121.57535374   324.54139976
 C     16  11   2     2.319235004645    65.96018789   122.17786492
 C     17  16  11     1.401148435466    91.18899035   108.54203246
 C     18  17  16     1.382243969153   119.86817180     0.14656506
 C     19  18  17     1.410103819986   119.14489980     0.00000000
 C     16  11   2     1.425013225570   100.18027309   333.22062438
 C     21  16  11     2.318611807470   147.37356457    61.21816906
 C     22  21  16     1.401256236413    91.20254301   179.56550587
 C     23  22  21     1.382151153186   119.86391739     0.20180824
 C     24  23  22     1.410198070694   119.13400795   359.88005914
 H     17  16  11     1.092639018862   147.90642084   288.84450987
 H     18  17  16     1.090424160252   118.91782950   180.04970834
 H     19  18  17     1.091898597467   121.16534808   179.93582890
 H     22  21  16     1.092653167583   147.93415818   359.76816512
 H     23  22  21     1.090491504786   118.93289632   179.99870390
 H     24  23  22     1.091873895452   121.15214790   179.80693376
 C     13   7   6     3.117554231558   119.93495636   327.07108084
 C     32  13   7     2.318702344237    66.07138084   120.23191323
 C     33  32  13     1.401062842845    91.18175524   111.01793635
 C     34  33  32     1.382306728412   119.87898734     0.04977530
 C     35  34  33     1.410125809905   119.14278032     0.00000000
 C     32  13   7     1.424874854992    99.26767106   330.84687821
 C     37  32  13     2.318976764539   147.32624103    59.91574273
 C     38  37  32     1.401087031229    91.17441985   179.62327924
 C     39  38  37     1.382296669615   119.87783635     0.00000000
 C     40  39  38     1.410120172897   119.15412597     0.05306379
 H     33  32  13     1.092712393835   147.90211257   291.19476451
 H     35  34  33     1.091907081738   121.14069137   179.95426840
 H     38  37  32     1.092742314706   147.90627168   359.86371029
 H     40  39  38     1.091880186899   121.12927986   180.02209112
 N     33  32  13     1.334421275494    31.17101195   291.20247980
 N      7   6   1     1.334712485272    31.20216978   359.53419286
 N     22  21  16     1.334307862984    31.17176112   359.76329543
 N      2   1   3     1.331871356764    30.96755589   180.24414953
 N     17  16  11     1.334651849894    31.15797407   288.86671057
 N     38  37  32     1.334436357587    31.15928528   359.91162590
 Ru    50  17  16     2.084133240948   128.13401245   177.90444282
 C     36  35  34     1.431443260475   124.08785856   179.93670254
 C     53  36  35     1.366147164170   121.20413643   179.97850746
 C     10   9   8     1.432772579230   124.19912520   180.01282239
 C     55  10   9     1.365679202973   121.33578621   179.68625935
 C     25  24  23     1.431235475806   124.03142118   179.67403996
 C     57  25  24     1.366085414899   121.20136101   180.31379213
 H     54  53  36     1.091942450700   120.58868667   179.92047068
 H     53  36  35     1.091972290466   118.19896844   359.94482096
 H     56  55  10     1.091993611255   120.56663442   180.04901736
 H     55  10   9     1.092026115360   118.14281070   359.77331374
 H     58  57  25     1.091980906021   120.61002049   179.72411827
 H     57  25  24     1.091952687357   118.20812751     0.10755995
 H     34  33  32     1.090495034829   118.93131910   179.98518643
 H     39  38  37     1.090504360172   118.93169566   179.96350910
 C      3   2   1     1.479984226927   119.38718594   179.50112316
 C     67   3   2     1.345706684276   121.80680993   179.99659367
 H     68  67   3     1.091873817737   123.31020211   359.92803829
 H     68  67   3     1.092532167532   120.46270813   179.89613270
 C     67   3   2     1.496891041609   117.58282303   359.82843386
 H     71  67   3     1.101533550551   111.85699268   300.77911853
 H     71  67   3     1.101399587477   111.93983888    59.91883403
 H     71  67   3     1.096221233707   111.11440123   180.38224488

---------------------------
INTERNAL COORDINATES (A.U.)
---------------------------
 C      0   0   0     0.000000000000     0.00000000     0.00000000
 C      1   0   0     4.379531030602     0.00000000     0.00000000
 C      2   1   0     2.672101715156    92.74923135     0.00000000
 C      3   2   1     2.638585818330   117.09525529   359.68700230
 C      4   3   2     2.653269329257   120.52216088     0.37070214
 C      1   2   3     2.689484985947   147.46841042   180.42545254
 C      6   1   2     4.380984050710   147.42111914     0.22254936
 C      7   6   1     2.647444137882    91.14104304   179.29531090
 C      8   7   6     2.613734138849   119.90094751     0.00000000
 C      9   8   7     2.663276739515   119.13821751     0.04560973
 H      2   1   3     2.061829208634   146.74413636   180.11454438
 H      4   3   2     2.062438870149   121.12511811   180.20541753
 H      7   6   1     2.064887137772   147.94286947   359.56987729
 H      8   7   6     2.060626532180   118.91790085   180.00377034
 H      9   8   7     2.063477009087   121.12064140   180.03926934
 C     11   2   1     5.648833394431   121.57535374   324.54139976
 C     16  11   2     4.382718998982    65.96018789   122.17786492
 C     17  16  11     2.647786816003    91.18899035   108.54203246
 C     18  17  16     2.612062551964   119.86817180     0.14656506
 C     19  18  17     2.664710040170   119.14489980     0.00000000
 C     16  11   2     2.692884733542   100.18027309   333.22062438
 C     21  16  11     4.381541326995   147.37356457    61.21816906
 C     22  21  16     2.647990530270    91.20254301   179.56550587
 C     23  22  21     2.611887155205   119.86391739     0.20180824
 C     24  23  22     2.664888148196   119.13400795   359.88005914
 H     17  16  11     2.064788508886   147.90642084   288.84450987
 H     18  17  16     2.060603032687   118.91782950   180.04970834
 H     19  18  17     2.063389315225   121.16534808   179.93582890
 H     22  21  16     2.064815246093   147.93415818   359.76816512
 H     23  22  21     2.060730295414   118.93289632   179.99870390
 H     24  23  22     2.063342635182   121.15214790   179.80693376
 C     13   7   6     5.891323705292   119.93495636   327.07108084
 C     32  13   7     4.381712416689    66.07138084   120.23191323
 C     33  32  13     2.647625069390    91.18175524   111.01793635
 C     34  33  32     2.612181149775   119.87898734     0.04977530
 C     35  34  33     2.664751595095   119.14278032     0.00000000
 C     32  13   7     2.692623251046    99.26767106   330.84687821
 C     37  32  13     4.382230995906   147.32624103    59.91574273
 C     38  37  32     2.647670778812    91.17441985   179.62327924
 C     39  38  37     2.612162141404   119.87783635     0.00000000
 C     40  39  38     2.664740942692   119.15412597     0.05306379
 H     33  32  13     2.064927167490   147.90211257   291.19476451
 H     35  34  33     2.063405348173   121.14069137   179.95426840
 H     38  37  32     2.064983709742   147.90627168   359.86371029
 H     40  39  38     2.063354524293   121.12927986   180.02209112
 N     33  32  13     2.521690757961    31.17101195   291.20247980
 N      7   6   1     2.522241064690    31.20216978   359.53419286
 N     22  21  16     2.521476439377    31.17176112   359.76329543
 N      2   1   3     2.516872109899    30.96755589   180.24414953
 N     17  16  11     2.522126480431    31.15797407   288.86671057
 N     38  37  32     2.521719258986    31.15928528   359.91162590
 Ru    50  17  16     3.938441051994   128.13401245   177.90444282
 C     36  35  34     2.705035738544   124.08785856   179.93670254
 C     53  36  35     2.581643998915   121.20413643   179.97850746
 C     10   9   8     2.707547786936   124.19912520   180.01282239
 C     55  10   9     2.580759680411   121.33578621   179.68625935
 C     25  24  23     2.704643082425   124.03142118   179.67403996
 C     57  25  24     2.581527309704   121.20136101   180.31379213
 H     54  53  36     2.063472185826   120.58868667   179.92047068
 H     53  36  35     2.063528574811   118.19896844   359.94482096
 H     56  55  10     2.063568865264   120.56663442   180.04901736
 H     55  10   9     2.063630289121   118.14281070   359.77331374
 H     58  57  25     2.063544855851   120.61002049   179.72411827
 H     57  25  24     2.063491530305   118.20812751     0.10755995
 H     34  33  32     2.060736966227   118.93131910   179.98518643
 H     39  38  37     2.060754588572   118.93169566   179.96350910
 C      3   2   1     2.796764871416   119.38718594   179.50112316
 C     67   3   2     2.543017089868   121.80680993   179.99659367
 H     68  67   3     2.063342488322   123.31020211   359.92803829
 H     68  67   3     2.064586589135   120.46270813   179.89613270
 C     67   3   2     2.828714120962   117.58282303   359.82843386
 H     71  67   3     2.081596737868   111.85699268   300.77911853
 H     71  67   3     2.081343584345   111.93983888    59.91883403
 H     71  67   3     2.071557913895   111.11440123   180.38224488

---------------------
BASIS SET INFORMATION
---------------------
There are 4 groups of distinct atoms

 Group   1 Type C   : 7s4p1d contracted to 3s2p1d pattern {511/31/1}
 Group   2 Type H   : 4s1p contracted to 2s1p pattern {31/1}
 Group   3 Type N   : 7s4p1d contracted to 3s2p1d pattern {511/31/1}
 Group   4 Type Ru  : 7s6p5d1f contracted to 5s3p2d1f pattern {31111/411/41/1}

Atom   0C    basis set group =>   1
Atom   1C    basis set group =>   1
Atom   2C    basis set group =>   1
Atom   3C    basis set group =>   1
Atom   4C    basis set group =>   1
Atom   5C    basis set group =>   1
Atom   6C    basis set group =>   1
Atom   7C    basis set group =>   1
Atom   8C    basis set group =>   1
Atom   9C    basis set group =>   1
Atom  10H    basis set group =>   2
Atom  11H    basis set group =>   2
Atom  12H    basis set group =>   2
Atom  13H    basis set group =>   2
Atom  14H    basis set group =>   2
Atom  15C    basis set group =>   1
Atom  16C    basis set group =>   1
Atom  17C    basis set group =>   1
Atom  18C    basis set group =>   1
Atom  19C    basis set group =>   1
Atom  20C    basis set group =>   1
Atom  21C    basis set group =>   1
Atom  22C    basis set group =>   1
Atom  23C    basis set group =>   1
Atom  24C    basis set group =>   1
Atom  25H    basis set group =>   2
Atom  26H    basis set group =>   2
Atom  27H    basis set group =>   2
Atom  28H    basis set group =>   2
Atom  29H    basis set group =>   2
Atom  30H    basis set group =>   2
Atom  31C    basis set group =>   1
Atom  32C    basis set group =>   1
Atom  33C    basis set group =>   1
Atom  34C    basis set group =>   1
Atom  35C    basis set group =>   1
Atom  36C    basis set group =>   1
Atom  37C    basis set group =>   1
Atom  38C    basis set group =>   1
Atom  39C    basis set group =>   1
Atom  40C    basis set group =>   1
Atom  41H    basis set group =>   2
Atom  42H    basis set group =>   2
Atom  43H    basis set group =>   2
Atom  44H    basis set group =>   2
Atom  45N    basis set group =>   3
Atom  46N    basis set group =>   3
Atom  47N    basis set group =>   3
Atom  48N    basis set group =>   3
Atom  49N    basis set group =>   3
Atom  50N    basis set group =>   3
Atom  51Ru   basis set group =>   4
Atom  52C    basis set group =>   1
Atom  53C    basis set group =>   1
Atom  54C    basis set group =>   1
Atom  55C    basis set group =>   1
Atom  56C    basis set group =>   1
Atom  57C    basis set group =>   1
Atom  58H    basis set group =>   2
Atom  59H    basis set group =>   2
Atom  60H    basis set group =>   2
Atom  61H    basis set group =>   2
Atom  62H    basis set group =>   2
Atom  63H    basis set group =>   2
Atom  64H    basis set group =>   2
Atom  65H    basis set group =>   2
Atom  66C    basis set group =>   1
Atom  67C    basis set group =>   1
Atom  68H    basis set group =>   2
Atom  69H    basis set group =>   2
Atom  70C    basis set group =>   1
Atom  71H    basis set group =>   2
Atom  72H    basis set group =>   2
Atom  73H    basis set group =>   2
---------------------------------
AUXILIARY/J BASIS SET INFORMATION
---------------------------------
There are 4 groups of distinct atoms

 Group   1 Type C   : 12s5p4d2f1g contracted to 6s4p3d1f1g pattern {711111/2111/211/2/1}
 Group   2 Type H   : 5s2p1d contracted to 3s1p1d pattern {311/2/1}
 Group   3 Type N   : 12s5p4d2f1g contracted to 6s4p3d1f1g pattern {711111/2111/211/2/1}
 Group   4 Type Ru  : 11s5p5d3f3g contracted to 8s5p5d2f3g pattern {41111111/11111/11111/21/111}

Atom   0C    basis set group =>   1
Atom   1C    basis set group =>   1
Atom   2C    basis set group =>   1
Atom   3C    basis set group =>   1
Atom   4C    basis set group =>   1
Atom   5C    basis set group =>   1
Atom   6C    basis set group =>   1
Atom   7C    basis set group =>   1
Atom   8C    basis set group =>   1
Atom   9C    basis set group =>   1
Atom  10H    basis set group =>   2
Atom  11H    basis set group =>   2
Atom  12H    basis set group =>   2
Atom  13H    basis set group =>   2
Atom  14H    basis set group =>   2
Atom  15C    basis set group =>   1
Atom  16C    basis set group =>   1
Atom  17C    basis set group =>   1
Atom  18C    basis set group =>   1
Atom  19C    basis set group =>   1
Atom  20C    basis set group =>   1
Atom  21C    basis set group =>   1
Atom  22C    basis set group =>   1
Atom  23C    basis set group =>   1
Atom  24C    basis set group =>   1
Atom  25H    basis set group =>   2
Atom  26H    basis set group =>   2
Atom  27H    basis set group =>   2
Atom  28H    basis set group =>   2
Atom  29H    basis set group =>   2
Atom  30H    basis set group =>   2
Atom  31C    basis set group =>   1
Atom  32C    basis set group =>   1
Atom  33C    basis set group =>   1
Atom  34C    basis set group =>   1
Atom  35C    basis set group =>   1
Atom  36C    basis set group =>   1
Atom  37C    basis set group =>   1
Atom  38C    basis set group =>   1
Atom  39C    basis set group =>   1
Atom  40C    basis set group =>   1
Atom  41H    basis set group =>   2
Atom  42H    basis set group =>   2
Atom  43H    basis set group =>   2
Atom  44H    basis set group =>   2
Atom  45N    basis set group =>   3
Atom  46N    basis set group =>   3
Atom  47N    basis set group =>   3
Atom  48N    basis set group =>   3
Atom  49N    basis set group =>   3
Atom  50N    basis set group =>   3
Atom  51Ru   basis set group =>   4
Atom  52C    basis set group =>   1
Atom  53C    basis set group =>   1
Atom  54C    basis set group =>   1
Atom  55C    basis set group =>   1
Atom  56C    basis set group =>   1
Atom  57C    basis set group =>   1
Atom  58H    basis set group =>   2
Atom  59H    basis set group =>   2
Atom  60H    basis set group =>   2
Atom  61H    basis set group =>   2
Atom  62H    basis set group =>   2
Atom  63H    basis set group =>   2
Atom  64H    basis set group =>   2
Atom  65H    basis set group =>   2
Atom  66C    basis set group =>   1
Atom  67C    basis set group =>   1
Atom  68H    basis set group =>   2
Atom  69H    basis set group =>   2
Atom  70C    basis set group =>   1
Atom  71H    basis set group =>   2
Atom  72H    basis set group =>   2
Atom  73H    basis set group =>   2
---------------------------------
AUXILIARY/C BASIS SET INFORMATION
---------------------------------
There are 4 groups of distinct atoms

 Group   1 Type C   : 8s6p5d3f contracted to 6s5p4d1f pattern {311111/21111/2111/3}
 Group   2 Type H   : 4s3p2d contracted to 3s2p1d pattern {211/21/2}
 Group   3 Type N   : 8s6p5d3f contracted to 6s5p4d1f pattern {311111/21111/2111/3}
 Group   4 Type Ru  : 8s7p6d5f3g1h contracted to 8s7p6d5f3g1h pattern {11111111/1111111/111111/11111/111/1}

Atom   0C    basis set group =>   1
Atom   1C    basis set group =>   1
Atom   2C    basis set group =>   1
Atom   3C    basis set group =>   1
Atom   4C    basis set group =>   1
Atom   5C    basis set group =>   1
Atom   6C    basis set group =>   1
Atom   7C    basis set group =>   1
Atom   8C    basis set group =>   1
Atom   9C    basis set group =>   1
Atom  10H    basis set group =>   2
Atom  11H    basis set group =>   2
Atom  12H    basis set group =>   2
Atom  13H    basis set group =>   2
Atom  14H    basis set group =>   2
Atom  15C    basis set group =>   1
Atom  16C    basis set group =>   1
Atom  17C    basis set group =>   1
Atom  18C    basis set group =>   1
Atom  19C    basis set group =>   1
Atom  20C    basis set group =>   1
Atom  21C    basis set group =>   1
Atom  22C    basis set group =>   1
Atom  23C    basis set group =>   1
Atom  24C    basis set group =>   1
Atom  25H    basis set group =>   2
Atom  26H    basis set group =>   2
Atom  27H    basis set group =>   2
Atom  28H    basis set group =>   2
Atom  29H    basis set group =>   2
Atom  30H    basis set group =>   2
Atom  31C    basis set group =>   1
Atom  32C    basis set group =>   1
Atom  33C    basis set group =>   1
Atom  34C    basis set group =>   1
Atom  35C    basis set group =>   1
Atom  36C    basis set group =>   1
Atom  37C    basis set group =>   1
Atom  38C    basis set group =>   1
Atom  39C    basis set group =>   1
Atom  40C    basis set group =>   1
Atom  41H    basis set group =>   2
Atom  42H    basis set group =>   2
Atom  43H    basis set group =>   2
Atom  44H    basis set group =>   2
Atom  45N    basis set group =>   3
Atom  46N    basis set group =>   3
Atom  47N    basis set group =>   3
Atom  48N    basis set group =>   3
Atom  49N    basis set group =>   3
Atom  50N    basis set group =>   3
Atom  51Ru   basis set group =>   4
Atom  52C    basis set group =>   1
Atom  53C    basis set group =>   1
Atom  54C    basis set group =>   1
Atom  55C    basis set group =>   1
Atom  56C    basis set group =>   1
Atom  57C    basis set group =>   1
Atom  58H    basis set group =>   2
Atom  59H    basis set group =>   2
Atom  60H    basis set group =>   2
Atom  61H    basis set group =>   2
Atom  62H    basis set group =>   2
Atom  63H    basis set group =>   2
Atom  64H    basis set group =>   2
Atom  65H    basis set group =>   2
Atom  66C    basis set group =>   1
Atom  67C    basis set group =>   1
Atom  68H    basis set group =>   2
Atom  69H    basis set group =>   2
Atom  70C    basis set group =>   1
Atom  71H    basis set group =>   2
Atom  72H    basis set group =>   2
Atom  73H    basis set group =>   2
-------------------------
ECP PARAMETER INFORMATION
-------------------------

 Group 1, Type Ru ECP Def2-ECP (replacing 28 core electrons, lmax=3)

Atom  51Ru   ECP group =>   1



           ************************************************************
           *        Program running with 8 parallel MPI-processes     *
           *              working on a common directory               *
           ************************************************************
------------------------------------------------------------------------------
                           ORCA GTO INTEGRAL CALCULATION
                           -- RI-GTO INTEGRALS CHOSEN --
------------------------------------------------------------------------------
------------------------------------------------------------------------------
                   ___                                                        
                  /   \      - P O W E R E D   B Y -                         
                 /     \                                                     
                 |  |  |   _    _      __       _____    __    __             
                 |  |  |  | |  | |    /  \     |  _  \  |  |  /  |          
                  \  \/   | |  | |   /    \    | | | |  |  | /  /          
                 / \  \   | |__| |  /  /\  \   | |_| |  |  |/  /          
                |  |  |   |  __  | /  /__\  \  |    /   |      \           
                |  |  |   | |  | | |   __   |  |    \   |  |\   \          
                \     /   | |  | | |  |  |  |  | |\  \  |  | \   \       
                 \___/    |_|  |_| |__|  |__|  |_| \__\ |__|  \__/        
                                                                              
                      - O R C A' S   B I G   F R I E N D -                    
                                      &                                       
                       - I N T E G R A L  F E E D E R -                       
                                                                              
 v1 FN, 2020, v2 2021                                                         
------------------------------------------------------------------------------


Reading SHARK input file Ru-PRC_2_SOS-wPBEPP86_def2SVP.SHARKINP.tmp ... ok
----------------------
SHARK INTEGRAL PACKAGE
----------------------

Number of atoms                             ...     74
Number of basis functions                   ...    801
Number of shells                            ...    365
Maximum angular momentum                    ...      3
Integral batch strategy                     ... SHARK/LIBINT Hybrid
RI-J (if used) integral strategy            ... SPLIT-RIJ (Revised 2003 algorithm where possible)
Printlevel                                  ...      1
Contraction scheme used                     ... SEGMENTED contraction
Coulomb Range Separation                    ... NOT USED
Exchange Range Separation                   ... Long Range
   Mu parameter                             ...  0.180000
   Scaling (regular/separated)              ...  0.700000  0.300000
Finite Nucleus Model                        ... NOT USED
Auxiliary Coulomb fitting basis             ... AVAILABLE
   # of basis functions in Aux-J            ...   2602
   # of shells in Aux-J                     ...    838
   Maximum angular momentum in Aux-J        ...      4
Auxiliary J/K fitting basis                 ... NOT available
Auxiliary Correlation fitting basis         ... AVAILABLE
   # of basis functions in Aux-C            ...   2684
   # of shells in Aux-C                     ...    918
   Maximum angular momentum in Aux-C        ...      5
Auxiliary 'external' fitting basis          ... NOT available
Integral threshold                          ...     2.500000e-11
Primitive cut-off                           ...     2.500000e-12
Primitive pair pre-selection threshold      ...     2.500000e-12

Calculating pre-screening integrals         ... done (  0.1 sec) Dimension = 365
Organizing shell pair data                  ... done (  0.2 sec)
Shell pair information
Total number of shell pairs                 ...     66795
Shell pairs after pre-screening             ...     42372
Total number of primitive shell pairs       ...    245334
Primitive shell pairs kept                  ...     91097
          la=0 lb=0:  12482 shell pairs
          la=1 lb=0:  15707 shell pairs
          la=1 lb=1:   5016 shell pairs
          la=2 lb=0:   5104 shell pairs
          la=2 lb=1:   3334 shell pairs
          la=2 lb=2:    457 shell pairs
          la=3 lb=0:    149 shell pairs
          la=3 lb=1:     90 shell pairs
          la=3 lb=2:     32 shell pairs
          la=3 lb=3:      1 shell pairs

Calculating one electron integrals          ... done (  0.1 sec)
Calculating ECP integrals                   ... done (  1.0 sec)
Calculating RI/J V-Matrix + Cholesky decomp.... done (  0.4 sec)
Calculating RI/C V-Matrix + Cholesky decomp.... done (  0.3 sec)
Calculating Nuclear repulsion               ... done (  0.0 sec) ENN=   6024.905487618291 Eh

SHARK setup successfully completed in   2.5 seconds

Maximum memory used throughout the entire GTOINT-calculation: 75.1 MB


           ************************************************************
           *        Program running with 8 parallel MPI-processes     *
           *              working on a common directory               *
           ************************************************************
-------------------------------------------------------------------------------
                                 ORCA SCF
-------------------------------------------------------------------------------

------------
SCF SETTINGS
------------
Hamiltonian:
 Density Functional     Method          .... DFT(GTOs)
 Exchange Functional    Exchange        .... LC-PBE
 Correlation Functional Correlation     .... P86
 LDA part of GGA corr.  LDAOpt          .... VWN-5
 Gradients option       PostSCFGGA      .... off
 Hybrid DFT is turned on
   Fraction HF Exchange ScalHFX         ....  0.700000
   Scaling of DF-GGA-X  ScalDFX         ....  0.000000
   Scaling of DF-GGA-C  ScalDFC         ....  0.680000
   Scaling of DF-LDA-C  ScalLDAC        ....  0.680000
   Perturbative correction              ....  0.480000
   Density functional embedding theory  .... OFF
 Long-range corrected/Screened/Range-Separated Hybrid DFT is turned on
   Amount of maximum screened exact exchange              ....  0.300000
   Range separation parameter mu (erf(mu*r12)/r12)        ....  0.180000
 RI-approximation to the Coulomb term is turned on
   Number of AuxJ basis functions       .... 2602
   RIJ-COSX (HFX calculated with COS-X)).... on


General Settings:
 Integral files         IntName         .... Ru-PRC_2_SOS-wPBEPP86_def2SVP
 Hartree-Fock type      HFTyp           .... RHF
 Total Charge           Charge          ....    2
 Multiplicity           Mult            ....    1
 Number of Electrons    NEL             ....  318
 Basis Dimension        Dim             ....  801
 Nuclear Repulsion      ENuc            ....   6024.9054876183 Eh

Convergence Acceleration:
 DIIS                   CNVDIIS         .... on
   Start iteration      DIISMaxIt       ....    12
   Startup error        DIISStart       ....  0.200000
   # of expansion vecs  DIISMaxEq       ....     5
   Bias factor          DIISBfac        ....   1.050
   Max. coefficient     DIISMaxC        ....  10.000
 Trust-Rad. Augm. Hess. CNVTRAH         .... auto
   Auto Start mean grad. ratio tolernc. ....  1.125000
   Auto Start start iteration           ....    20
   Auto Start num. interpolation iter.  ....    10
   Max. Number of Micro iterations      ....    16
   Max. Number of Macro iterations      .... Maxiter - #DIIS iter
   Number of Davidson start vectors     ....     2
   Converg. threshold I  (grad. norm)   ....   1.000e-05
   Converg. threshold II (energy diff.) ....   1.000e-08
   Grad. Scal. Fac. for Micro threshold ....   0.100
   Minimum threshold for Micro iter.    ....   0.010
   NR start threshold (gradient norm)   ....   0.001
   Initial trust radius                 ....   0.400
   Minimum AH scaling param. (alpha)    ....   1.000
   Maximum AH scaling param. (alpha)    .... 1000.000
   Orbital update algorithm             .... Taylor
   White noise on init. David. guess    .... on
   Maximum white noise                  ....   0.010
   Quad. conv. algorithm                .... NR
 SOSCF                  CNVSOSCF        .... off
 Level Shifting         CNVShift        .... on
   Level shift para.    LevelShift      ....    0.2500
   Turn off err/grad.   ShiftErr        ....    0.0010
 Zerner damping         CNVZerner       .... off
 Static damping         CNVDamp         .... on
   Fraction old density DampFac         ....    0.7000
   Max. Damping (<1)    DampMax         ....    0.9800
   Min. Damping (>=0)   DampMin         ....    0.0000
   Turn off err/grad.   DampErr         ....    0.1000
 Fernandez-Rico         CNVRico         .... off

SCF Procedure:
 Maximum # iterations   MaxIter         ....   125
 SCF integral mode      SCFMode         .... Direct
   Integral package                     .... SHARK and LIBINT hybrid scheme
 Reset frequency        DirectResetFreq ....    20
 Integral Threshold     Thresh          ....  2.500e-11 Eh
 Primitive CutOff       TCut            ....  2.500e-12 Eh

Convergence Tolerance:
 Convergence Check Mode ConvCheckMode   .... Total+1el-Energy
 Convergence forced     ConvForced      .... 1
 Energy Change          TolE            ....  1.000e-08 Eh
 1-El. energy change                    ....  1.000e-05 Eh
 DIIS Error             TolErr          ....  5.000e-07


Diagonalization of the overlap matrix:
Smallest eigenvalue                        ... 1.491e-04
Time for diagonalization                   ...    0.108 sec
Threshold for overlap eigenvalues          ... 1.000e-08
Number of eigenvalues below threshold      ... 0
Time for construction of square roots      ...    0.056 sec
Total time needed                          ...    0.165 sec

Time for model grid setup =    0.707 sec

------------------------------
INITIAL GUESS: MODEL POTENTIAL
------------------------------
Loading Hartree-Fock densities                     ... done
  calling /project/ligandum/orca_504_openmpi411/orca Ru-PRC_2_SOS-wPBEPP86_def2SVP_atom44.inp > Ru-PRC_2_SOS-wPBEPP86_def2SVP_atom44.out in order to generate an atomic fitting density for atom 51 (Ru with ECP) on-the-fly... 
    atom 51 (Ru), assumed electronic state with S=5: 1s2 2s2 2p6 3s2 3p6 4s2 3d10 4p6 5s2 4d6           ... done
Calculating cut-offs                               ... done
Initializing the effective Hamiltonian             ... done
Setting up the integral package (SHARK)            ... done
Starting the Coulomb interaction                   ... done (   0.6 sec)
Reading the grid                                   ... done
Mapping shells                                     ... done
Starting the XC term evaluation                    ... done (   0.3 sec)
  promolecular density results
     # of electrons  =    348.008916634
     EX              =   -364.782969597
     EC              =     -6.357635958
     EX+EC           =   -371.140605555
Transforming the Hamiltonian                       ... done (   0.1 sec)
Diagonalizing the Hamiltonian                      ... done (   0.1 sec)
Back transforming the eigenvectors                 ... done (   0.0 sec)
Now organizing SCF variables                       ... done
                      ------------------
                      INITIAL GUESS DONE (   7.6 sec)
                      ------------------
-------------------
DFT GRID GENERATION
-------------------

General Integration Accuracy     IntAcc      ... 4.388
Radial Grid Type                 RadialGrid  ... OptM3 with GC (2021)
Angular Grid (max. ang.)         AngularGrid ... 4 (Lebedev-302)
Angular grid pruning method      GridPruning ... 4 (adaptive)
Weight generation scheme         WeightScheme... Becke
Basis function cutoff            BFCut       ... 1.0000e-11
Integration weight cutoff        WCut        ... 1.0000e-14
Angular grids for H and He will be reduced by one unit
Partially contracted basis set               ... off
Rotationally invariant grid construction     ... off

Total number of grid points                  ...   362865
Total number of batches                      ...     5709
Average number of points per batch           ...       63
Average number of grid points per atom       ...     4904
Time for grid setup =    2.723 sec

--------------------
COSX GRID GENERATION
--------------------

GRIDX 1
-------
General Integration Accuracy     IntAcc      ... 3.816
Radial Grid Type                 RadialGrid  ... OptM3 with GC (2021)
Angular Grid (max. ang.)         AngularGrid ... 1 (Lebedev-50)
Angular grid pruning method      GridPruning ... 4 (adaptive)
Weight generation scheme         WeightScheme... Becke
Basis function cutoff            BFCut       ... 1.0000e-11
Integration weight cutoff        WCut        ... 1.0000e-14
Angular grids for H and He will be reduced by one unit
Partially contracted basis set               ... on
Rotationally invariant grid construction     ... off

Total number of grid points                  ...    45788
Total number of batches                      ...      744
Average number of points per batch           ...       61
Average number of grid points per atom       ...      619
UseSFitting                                  ... on

GRIDX 2
-------
General Integration Accuracy     IntAcc      ... 4.020
Radial Grid Type                 RadialGrid  ... OptM3 with GC (2021)
Angular Grid (max. ang.)         AngularGrid ... 2 (Lebedev-110)
Angular grid pruning method      GridPruning ... 4 (adaptive)
Weight generation scheme         WeightScheme... Becke
Basis function cutoff            BFCut       ... 1.0000e-11
Integration weight cutoff        WCut        ... 1.0000e-14
Angular grids for H and He will be reduced by one unit
Partially contracted basis set               ... on
Rotationally invariant grid construction     ... off

Total number of grid points                  ...    99493
Total number of batches                      ...     1592
Average number of points per batch           ...       62
Average number of grid points per atom       ...     1344
UseSFitting                                  ... on

GRIDX 3
-------
General Integration Accuracy     IntAcc      ... 4.338
Radial Grid Type                 RadialGrid  ... OptM3 with GC (2021)
Angular Grid (max. ang.)         AngularGrid ... 3 (Lebedev-194)
Angular grid pruning method      GridPruning ... 4 (adaptive)
Weight generation scheme         WeightScheme... Becke
Basis function cutoff            BFCut       ... 1.0000e-11
Integration weight cutoff        WCut        ... 1.0000e-14
Angular grids for H and He will be reduced by one unit
Partially contracted basis set               ... on
Rotationally invariant grid construction     ... off

Total number of grid points                  ...   215791
Total number of batches                      ...     3408
Average number of points per batch           ...       63
Average number of grid points per atom       ...     2916
UseSFitting                                  ... on

Time for X-Grid setup             =    2.850 sec


--------------------
CPCM SOLVATION MODEL
--------------------
CPCM parameters:
  Epsilon                                         ...      37.2190
  Refrac                                          ...       1.4305
  Rsolv                                           ...       1.3000
  Surface type                                    ... GAUSSIAN VDW
  Epsilon function type                           ...         CPCM
Solvent:                                     ... DMF
SMD-CDS solvent descriptors:
  Soln                                       ...    1.4305
  Soln25                                     ...    1.4280
  Sola                                       ...    0.0000
  Solb                                       ...    0.7400
  Solg                                       ...   49.5600
  Solc                                       ...    0.0000
  Solh                                       ...    0.0000
Radii:
 Radius for C  used is    3.4960 Bohr (=   1.8500 Ang.)
 Radius for H  used is    2.2677 Bohr (=   1.2000 Ang.)
 Radius for N  used is    3.5716 Bohr (=   1.8900 Ang.)
 Radius for Ru used is    3.9117 Bohr (=   2.0700 Ang.)
Calculating surface                               ...        done! (  0.0s)
GEPOL surface points                              ...         4064
GEPOL Volume                                      ...    3996.9030
GEPOL Surface-area                                ...    2020.7397
Calculating surface distance matrix               ...        done! (  0.1s)
Performing Cholesky decomposition & store         ...        done! (  0.5s)
Overall time for CPCM initialization              ...                 0.6s
--------------
SCF ITERATIONS
--------------
ITER       Energy         Delta-E        Max-DP      RMS-DP      [F,P]     Damp
               ***  Starting incremental Fock matrix formation  ***
  0  -1918.5198084697   0.000000000000 0.16076988  0.00151279  0.3589906 0.7000
  1  -1918.9307448055  -0.410936335780 0.08828432  0.00108977  0.2919447 0.7000
  2  -1919.1263316276  -0.195586822111 0.06418545  0.00076203  0.2258681 0.7000
                               ***Turning on DIIS***
  3  -1919.2554668380  -0.129135210394 0.05604114  0.00055330  0.1638193 0.7000
  4  -1919.3497333012  -0.094266463193 0.03971892  0.00040992  0.1142642 0.7000
  5  -1919.4181937095  -0.068460408299 0.08551252  0.00101639  0.0791728 0.0000
  6  -1919.5928971609  -0.174703451361 0.01509644  0.00012588  0.0077111 0.0000
  7  -1919.5965574566  -0.003660295690 0.01101184  0.00008701  0.0041586 0.0000
  8  -1919.5981014956  -0.001544039058 0.00589577  0.00005624  0.0022136 0.0000
  9  -1919.5986055322  -0.000504036575 0.00494059  0.00004362  0.0009367 0.0000
               *** Restarting incremental Fock matrix formation ***
                                   *** Resetting DIIS ***
 10  -1919.5980254155   0.000580116686 0.00273001  0.00003038  0.0018399 0.0000
 11  -1919.5980409031  -0.000015487600 0.00136927  0.00001115  0.0008643 0.0000
 12  -1919.5980494925  -0.000008589339 0.00048571  0.00000596  0.0004009 0.0000
 13  -1919.5980518712  -0.000002378698 0.00020717  0.00000188  0.0000846 0.0000
 14  -1919.5980521121  -0.000000240956 0.00007352  0.00000070  0.0000380 0.0000
 15  -1919.5980521154  -0.000000003325 0.00006148  0.00000038  0.0000220 0.0000
 16  -1919.5980520722   0.000000043205 0.00002733  0.00000016  0.0000107 0.0000
 17  -1919.5980520789  -0.000000006700 0.00001635  0.00000011  0.0000051 0.0000
 18  -1919.5980520576   0.000000021351 0.00001305  0.00000007  0.0000045 0.0000
 19  -1919.5980520573   0.000000000267 0.00000375  0.00000003  0.0000019 0.0000
                            ***DIIS convergence achieved***

               *****************************************************
               *                     SUCCESS                       *
               *           SCF CONVERGED AFTER  20 CYCLES          *
               *****************************************************

Old exchange energy                            =   -191.608302970 Eh
New exchange energy                            =   -191.608511090 Eh
Exchange energy change after final integration =     -0.000208120 Eh
Total energy after final integration           =  -1919.598260166 Eh
Final COS-X integration done in                =    69.849 sec

SMD CDS free energy correction energy :                -6.37806     Kcal/mol
Total Energy after SMD CDS correction =             -1919.608424248 Eh

----------------
TOTAL SCF ENERGY
----------------

Total Energy       :        -1919.60842425 Eh          -52235.20081 eV

Components:
Nuclear Repulsion  :         6024.90548762 Eh          163946.01317 eV
Electronic Energy  :        -7944.51391187 Eh         -216181.21398 eV
One Electron Energy:       -14572.06581332 Eh         -396526.06978 eV
Two Electron Energy:         6627.55190146 Eh          180344.85579 eV
Max COSX asymmetry :            0.00009533 Eh               0.00259 eV
CPCM Dielectric    :           -0.21453738 Eh              -5.83786 eV
SMD CDS (Gcds)     :           -0.01016408 Eh              -0.27658 eV

Virial components:
Potential Energy   :        -3761.75988113 Eh         -102362.69038 eV
Kinetic Energy     :         1842.15145689 Eh           50127.48957 eV
Virial Ratio       :            2.04204701


DFT components:
N(Alpha)           :      159.000014497675 electrons
N(Beta)            :      159.000014497675 electrons
N(Total)           :      318.000028995350 electrons
E(X)               :      -67.627398741967 Eh       
E(C)               :       -8.124323121135 Eh       
E(XC)              :      -75.751721863102 Eh       
DFET-embed. en.    :        0.000000000000 Eh       
CPCM Solvation Model Properties:
Surface-charge          :           -2.06187677
Charge-correction       :            0.01096374 Eh               0.29834 eV
Free-energy (cav+disp)  :           -0.01016408 Eh              -0.27658 eV

---------------
SCF CONVERGENCE
---------------

  Last Energy change         ...    1.0578e-08  Tolerance :   1.0000e-08
  Last MAX-Density change    ...    0.0000e+00  Tolerance :   1.0000e-07
  Last RMS-Density change    ...    0.0000e+00  Tolerance :   5.0000e-09
  Last DIIS Error            ...    5.6156e-07  Tolerance :   5.0000e-07

             **** THE GBW FILE WAS UPDATED (Ru-PRC_2_SOS-wPBEPP86_def2SVP.gbw) ****
             **** DENSITY Ru-PRC_2_SOS-wPBEPP86_def2SVP.scfp WAS UPDATED ****
             **** ENERGY FILE WAS UPDATED (Ru-PRC_2_SOS-wPBEPP86_def2SVP.en.tmp) ****
             **** THE GBW FILE WAS UPDATED (Ru-PRC_2_SOS-wPBEPP86_def2SVP.gbw) ****
             **** DENSITY Ru-PRC_2_SOS-wPBEPP86_def2SVP.scfp WAS UPDATED ****
----------------
ORBITAL ENERGIES
----------------

  NO   OCC          E(Eh)            E(eV) 
   0   2.0000     -15.202043      -413.6686 
   1   2.0000     -15.201897      -413.6646 
   2   2.0000     -15.201626      -413.6573 
   3   2.0000     -15.201616      -413.6570 
   4   2.0000     -15.201539      -413.6549 
   5   2.0000     -15.201502      -413.6539 
   6   2.0000     -10.947961      -297.9092 
   7   2.0000     -10.947662      -297.9010 
   8   2.0000     -10.947464      -297.8956 
   9   2.0000     -10.947201      -297.8885 
  10   2.0000     -10.946916      -297.8807 
  11   2.0000     -10.946181      -297.8607 
  12   2.0000     -10.945757      -297.8492 
  13   2.0000     -10.945423      -297.8401 
  14   2.0000     -10.945373      -297.8388 
  15   2.0000     -10.945179      -297.8335 
  16   2.0000     -10.945093      -297.8311 
  17   2.0000     -10.944893      -297.8257 
  18   2.0000     -10.918109      -297.0969 
  19   2.0000     -10.917981      -297.0934 
  20   2.0000     -10.917847      -297.0897 
  21   2.0000     -10.917783      -297.0880 
  22   2.0000     -10.917741      -297.0868 
  23   2.0000     -10.917715      -297.0861 
  24   2.0000     -10.917237      -297.0731 
  25   2.0000     -10.917022      -297.0673 
  26   2.0000     -10.917020      -297.0672 
  27   2.0000     -10.916940      -297.0650 
  28   2.0000     -10.916905      -297.0641 
  29   2.0000     -10.916891      -297.0637 
  30   2.0000     -10.914302      -296.9933 
  31   2.0000     -10.901854      -296.6545 
  32   2.0000     -10.901815      -296.6535 
  33   2.0000     -10.901785      -296.6526 
  34   2.0000     -10.901696      -296.6502 
  35   2.0000     -10.901550      -296.6463 
  36   2.0000     -10.901511      -296.6452 
  37   2.0000     -10.901446      -296.6434 
  38   2.0000     -10.901405      -296.6423 
  39   2.0000     -10.900731      -296.6240 
  40   2.0000     -10.900720      -296.6237 
  41   2.0000     -10.900634      -296.6213 
  42   2.0000     -10.898637      -296.5670 
  43   2.0000     -10.874899      -295.9210 
  44   2.0000     -10.865980      -295.6784 
  45   2.0000      -3.376185       -91.8707 
  46   2.0000      -2.123342       -57.7791 
  47   2.0000      -2.123018       -57.7703 
  48   2.0000      -2.116408       -57.5904 
  49   2.0000      -1.246445       -33.9175 
  50   2.0000      -1.239034       -33.7158 
  51   2.0000      -1.238695       -33.7066 
  52   2.0000      -1.209568       -32.9140 
  53   2.0000      -1.208875       -32.8952 
  54   2.0000      -1.208614       -32.8881 
  55   2.0000      -1.101406       -29.9708 
  56   2.0000      -1.099012       -29.9056 
  57   2.0000      -1.098926       -29.9033 
  58   2.0000      -1.074129       -29.2285 
  59   2.0000      -1.051220       -28.6052 
  60   2.0000      -1.050963       -28.5981 
  61   2.0000      -1.049627       -28.5618 
  62   2.0000      -1.046446       -28.4753 
  63   2.0000      -1.046183       -28.4681 
  64   2.0000      -1.015930       -27.6448 
  65   2.0000      -0.980210       -26.6729 
  66   2.0000      -0.979905       -26.6646 
  67   2.0000      -0.976965       -26.5846 
  68   2.0000      -0.976005       -26.5585 
  69   2.0000      -0.975534       -26.5456 
  70   2.0000      -0.965350       -26.2685 
  71   2.0000      -0.892880       -24.2965 
  72   2.0000      -0.873740       -23.7757 
  73   2.0000      -0.872436       -23.7402 
  74   2.0000      -0.872009       -23.7286 
  75   2.0000      -0.857028       -23.3209 
  76   2.0000      -0.856433       -23.3047 
  77   2.0000      -0.853887       -23.2355 
  78   2.0000      -0.847895       -23.0724 
  79   2.0000      -0.847625       -23.0651 
  80   2.0000      -0.846122       -23.0242 
  81   2.0000      -0.811049       -22.0698 
  82   2.0000      -0.809174       -22.0187 
  83   2.0000      -0.808717       -22.0063 
  84   2.0000      -0.761138       -20.7116 
  85   2.0000      -0.746997       -20.3268 
  86   2.0000      -0.745419       -20.2839 
  87   2.0000      -0.742929       -20.2161 
  88   2.0000      -0.730382       -19.8747 
  89   2.0000      -0.729138       -19.8408 
  90   2.0000      -0.708905       -19.2903 
  91   2.0000      -0.708428       -19.2773 
  92   2.0000      -0.706345       -19.2206 
  93   2.0000      -0.706086       -19.2136 
  94   2.0000      -0.667491       -18.1634 
  95   2.0000      -0.665156       -18.0998 
  96   2.0000      -0.664145       -18.0723 
  97   2.0000      -0.663836       -18.0639 
  98   2.0000      -0.662685       -18.0326 
  99   2.0000      -0.657533       -17.8924 
 100   2.0000      -0.651514       -17.7286 
 101   2.0000      -0.651130       -17.7181 
 102   2.0000      -0.649510       -17.6741 
 103   2.0000      -0.621882       -16.9223 
 104   2.0000      -0.621178       -16.9031 
 105   2.0000      -0.617844       -16.8124 
 106   2.0000      -0.615039       -16.7361 
 107   2.0000      -0.605237       -16.4693 
 108   2.0000      -0.603045       -16.4097 
 109   2.0000      -0.602587       -16.3972 
 110   2.0000      -0.598459       -16.2849 
 111   2.0000      -0.598168       -16.2770 
 112   2.0000      -0.593062       -16.1380 
 113   2.0000      -0.592362       -16.1190 
 114   2.0000      -0.591657       -16.0998 
 115   2.0000      -0.580304       -15.7909 
 116   2.0000      -0.578872       -15.7519 
 117   2.0000      -0.576600       -15.6901 
 118   2.0000      -0.575068       -15.6484 
 119   2.0000      -0.573178       -15.5970 
 120   2.0000      -0.569736       -15.5033 
 121   2.0000      -0.568188       -15.4612 
 122   2.0000      -0.565263       -15.3816 
 123   2.0000      -0.561002       -15.2656 
 124   2.0000      -0.554696       -15.0940 
 125   2.0000      -0.547669       -14.9028 
 126   2.0000      -0.544196       -14.8083 
 127   2.0000      -0.532567       -14.4919 
 128   2.0000      -0.528882       -14.3916 
 129   2.0000      -0.523203       -14.2371 
 130   2.0000      -0.520149       -14.1540 
 131   2.0000      -0.518420       -14.1069 
 132   2.0000      -0.512060       -13.9339 
 133   2.0000      -0.496375       -13.5070 
 134   2.0000      -0.496055       -13.4983 
 135   2.0000      -0.495557       -13.4848 
 136   2.0000      -0.492916       -13.4129 
 137   2.0000      -0.488635       -13.2964 
 138   2.0000      -0.485693       -13.2164 
 139   2.0000      -0.483870       -13.1668 
 140   2.0000      -0.464242       -12.6327 
 141   2.0000      -0.463006       -12.5990 
 142   2.0000      -0.455205       -12.3868 
 143   2.0000      -0.452496       -12.3130 
 144   2.0000      -0.445690       -12.1278 
 145   2.0000      -0.438623       -11.9355 
 146   2.0000      -0.435228       -11.8432 
 147   2.0000      -0.430169       -11.7055 
 148   2.0000      -0.428239       -11.6530 
 149   2.0000      -0.386556       -10.5187 
 150   2.0000      -0.363090        -9.8802 
 151   2.0000      -0.362897        -9.8749 
 152   2.0000      -0.358666        -9.7598 
 153   2.0000      -0.352434        -9.5902 
 154   2.0000      -0.345015        -9.3883 
 155   2.0000      -0.339254        -9.2316 
 156   2.0000      -0.328481        -8.9384 
 157   2.0000      -0.324343        -8.8258 
 158   2.0000      -0.322265        -8.7693 
 159   0.0000      -0.011141        -0.3032 
 160   0.0000      -0.003423        -0.0931 
 161   0.0000      -0.001888        -0.0514 
 162   0.0000       0.003110         0.0846 
 163   0.0000       0.007933         0.2159 
 164   0.0000       0.008284         0.2254 
 165   0.0000       0.049093         1.3359 
 166   0.0000       0.062348         1.6966 
 167   0.0000       0.065657         1.7866 
 168   0.0000       0.081273         2.2115 
 169   0.0000       0.095752         2.6056 
 170   0.0000       0.097212         2.6453 
 171   0.0000       0.121967         3.3189 
 172   0.0000       0.131345         3.5741 
 173   0.0000       0.142295         3.8720 
 174   0.0000       0.143656         3.9091 
 175   0.0000       0.151859         4.1323 
 176   0.0000       0.153708         4.1826 
 177   0.0000       0.159647         4.3442 
 178   0.0000       0.163143         4.4393 
 179   0.0000       0.164236         4.4691 
 180   0.0000       0.166261         4.5242 
 181   0.0000       0.168313         4.5800 
 182   0.0000       0.169538         4.6134 
 183   0.0000       0.177970         4.8428 
 184   0.0000       0.182096         4.9551 
 185   0.0000       0.183868         5.0033 
 186   0.0000       0.189502         5.1566 
 187   0.0000       0.192295         5.2326 
 188   0.0000       0.195729         5.3261 
 189   0.0000       0.199368         5.4251 
 190   0.0000       0.204967         5.5774 
 191   0.0000       0.209545         5.7020 
 192   0.0000       0.216370         5.8877 
 193   0.0000       0.220052         5.9879 
 194   0.0000       0.223082         6.0704 
 195   0.0000       0.224232         6.1017 
 196   0.0000       0.227628         6.1941 
 197   0.0000       0.234302         6.3757 
 198   0.0000       0.237472         6.4619 
 199   0.0000       0.238670         6.4945 
 200   0.0000       0.240654         6.5485 
 201   0.0000       0.242372         6.5953 
 202   0.0000       0.251618         6.8469 
 203   0.0000       0.255392         6.9496 
 204   0.0000       0.261557         7.1173 
 205   0.0000       0.263431         7.1683 
 206   0.0000       0.266329         7.2472 
 207   0.0000       0.270911         7.3719 
 208   0.0000       0.272365         7.4114 
 209   0.0000       0.274794         7.4775 
 210   0.0000       0.299078         8.1383 
 211   0.0000       0.311988         8.4896 
 212   0.0000       0.323792         8.8108 
 213   0.0000       0.329524         8.9668 
 214   0.0000       0.331047         9.0082 
 215   0.0000       0.332418         9.0456 
 216   0.0000       0.333259         9.0685 
 217   0.0000       0.334601         9.1050 
 218   0.0000       0.335910         9.1406 
 219   0.0000       0.341706         9.2983 
 220   0.0000       0.343240         9.3400 
 221   0.0000       0.346190         9.4203 
 222   0.0000       0.346933         9.4405 
 223   0.0000       0.356655         9.7051 
 224   0.0000       0.358591         9.7578 
 225   0.0000       0.361895         9.8477 
 226   0.0000       0.364620         9.9218 
 227   0.0000       0.366805         9.9813 
 228   0.0000       0.369241        10.0475 
 229   0.0000       0.379021        10.3137 
 230   0.0000       0.381741        10.3877 
 231   0.0000       0.387569        10.5463 
 232   0.0000       0.390858        10.6358 
 233   0.0000       0.393723        10.7138 
 234   0.0000       0.394161        10.7257 
 235   0.0000       0.397010        10.8032 
 236   0.0000       0.399714        10.8768 
 237   0.0000       0.403240        10.9727 
 238   0.0000       0.405465        11.0333 
 239   0.0000       0.406924        11.0730 
 240   0.0000       0.410193        11.1619 
 241   0.0000       0.413413        11.2496 
 242   0.0000       0.416091        11.3224 
 243   0.0000       0.419660        11.4195 
 244   0.0000       0.423895        11.5348 
 245   0.0000       0.425336        11.5740 
 246   0.0000       0.431555        11.7432 
 247   0.0000       0.438182        11.9235 
 248   0.0000       0.440144        11.9769 
 249   0.0000       0.443387        12.0652 
 250   0.0000       0.445735        12.1291 
 251   0.0000       0.452533        12.3141 
 252   0.0000       0.457001        12.4356 
 253   0.0000       0.463645        12.6164 
 254   0.0000       0.468405        12.7460 
 255   0.0000       0.472279        12.8514 
 256   0.0000       0.473751        12.8914 
 257   0.0000       0.479852        13.0574 
 258   0.0000       0.482204        13.1214 
 259   0.0000       0.490625        13.3506 
 260   0.0000       0.492116        13.3912 
 261   0.0000       0.496529        13.5112 
 262   0.0000       0.504194        13.7198 
 263   0.0000       0.513450        13.9717 
 264   0.0000       0.522070        14.2062 
 265   0.0000       0.524634        14.2760 
 266   0.0000       0.530068        14.4239 
 267   0.0000       0.531426        14.4608 
 268   0.0000       0.535150        14.5622 
 269   0.0000       0.538749        14.6601 
 270   0.0000       0.543648        14.7934 
 271   0.0000       0.549985        14.9658 
 272   0.0000       0.554473        15.0880 
 273   0.0000       0.560915        15.2633 
 274   0.0000       0.561847        15.2886 
 275   0.0000       0.567399        15.4397 
 276   0.0000       0.570363        15.5204 
 277   0.0000       0.572251        15.5717 
 278   0.0000       0.573759        15.6128 
 279   0.0000       0.576319        15.6824 
 280   0.0000       0.576792        15.6953 
 281   0.0000       0.584614        15.9081 
[...]
   156a -> 160a  :     0.011418 
   156a -> 163a  :     0.083227 
   157a -> 160a  :     0.010126 
   157a -> 163a  :     0.019742 
   157a -> 164a  :     0.010137 

STATE 37:  E=   0.170547 au      4.641 eV    37430.8 cm**-1 <S**2> =   0.000000
   150a -> 160a  :     0.015815 
   150a -> 163a  :     0.131957 
   151a -> 161a  :     0.020502 
   151a -> 162a  :     0.138563 
   151a -> 163a  :     0.019439 
   151a -> 164a  :     0.056776 
   152a -> 161a  :     0.019357 
   152a -> 162a  :     0.081202 
   152a -> 163a  :     0.017821 
   152a -> 164a  :     0.040390 
   153a -> 163a  :     0.116229 
   154a -> 160a  :     0.041656 
   155a -> 164a  :     0.010353 
   156a -> 162a  :     0.016740 
   156a -> 163a  :     0.030639 
   156a -> 164a  :     0.053988 
   157a -> 161a  :     0.017531 
   157a -> 163a  :     0.012305 
   158a -> 163a  :     0.030240 

STATE 38:  E=   0.195084 au      5.309 eV    42816.0 cm**-1 <S**2> =   0.000000
   144a -> 159a  :     0.010610 
   148a -> 159a  :     0.015545 
   149a -> 159a  :     0.115828 
   149a -> 162a  :     0.037079 
   149a -> 164a  :     0.072270 
   149a -> 168a  :     0.011126 
   154a -> 159a  :     0.017505 
   154a -> 166a  :     0.032542 
   155a -> 164a  :     0.015991 
   156a -> 168a  :     0.040276 
   157a -> 159a  :     0.012373 
   157a -> 165a  :     0.020625 
   158a -> 159a  :     0.013757 
   158a -> 165a  :     0.225673 
   158a -> 166a  :     0.073269 
   158a -> 168a  :     0.025636 

STATE 39:  E=   0.193607 au      5.268 eV    42491.7 cm**-1 <S**2> =   0.000000
   144a -> 163a  :     0.012176 
   146a -> 161a  :     0.014599 
   147a -> 162a  :     0.013041 
   148a -> 160a  :     0.012849 
   153a -> 167a  :     0.017115 
   154a -> 161a  :     0.019994 
   154a -> 167a  :     0.107267 
   155a -> 163a  :     0.024927 
   155a -> 167a  :     0.012108 
   156a -> 163a  :     0.022686 
   156a -> 165a  :     0.069334 
   156a -> 167a  :     0.026858 
   157a -> 165a  :     0.194494 
   157a -> 166a  :     0.071007 
   158a -> 160a  :     0.016029 
   158a -> 165a  :     0.064307 
   158a -> 166a  :     0.026808 
   158a -> 167a  :     0.036055 

STATE 40:  E=   0.200215 au      5.448 eV    43942.1 cm**-1 <S**2> =   0.000000
   145a -> 161a  :     0.013368 
   146a -> 160a  :     0.010961 
   147a -> 160a  :     0.010988 
   147a -> 163a  :     0.013351 
   149a -> 159a  :     0.034430 
   149a -> 164a  :     0.018815 
   152a -> 167a  :     0.025709 
   154a -> 160a  :     0.014004 
   154a -> 165a  :     0.050562 
   154a -> 166a  :     0.072777 
   155a -> 167a  :     0.013725 
   156a -> 162a  :     0.012184 
   156a -> 165a  :     0.076713 
   157a -> 165a  :     0.110684 
   157a -> 166a  :     0.021799 
   157a -> 167a  :     0.128424 
   158a -> 165a  :     0.028829 
   158a -> 166a  :     0.013601 
   158a -> 167a  :     0.031928 


-------------------------
TD-DFT-EXCITATION SPECTRA
-------------------------

Center of mass = (  0.0489, -0.0060,  0.0290)
Calculating the Dipole integrals                  ... done
Transforming integrals                            ... done
Calculating the Linear Momentum integrals         ... done
Transforming integrals                            ... done
Calculating angular momentum integrals            ... done
Transforming integrals                            ... done

-----------------------------------------------------------------------------
         ABSORPTION SPECTRUM VIA TRANSITION ELECTRIC DIPOLE MOMENTS
-----------------------------------------------------------------------------
State   Energy    Wavelength  fosc         T2        TX        TY        TZ  
        (cm-1)      (nm)                 (au**2)    (au)      (au)      (au) 
-----------------------------------------------------------------------------
   1   30488.6    328.0   0.000215777   0.00233   0.04594   0.01414  -0.00441
   2   30563.9    327.2   0.000183553   0.00198   0.02227  -0.03849   0.00007
   3   31571.2    316.7   0.000032019   0.00033   0.00900   0.01555  -0.00331
   4   30369.9    329.3   0.171884524   1.86324   0.91778  -0.54866   0.84846
   5   26511.4    377.2   0.062921823   0.78135   0.52928   0.69872  -0.11401
   6   27269.4    366.7   0.097851384   1.18132  -0.84978   0.60984   0.29544
   7   28503.2    350.8   0.019334658   0.22332  -0.32012  -0.34429   0.04797
   8   30999.4    322.6   0.004192151   0.04452  -0.14616  -0.14947   0.02856
   9   31463.3    317.8   0.008432674   0.08823  -0.23835   0.16762   0.05767
  10   34270.4    291.8   0.003068726   0.02948  -0.01941  -0.16895   0.02360
  11   33698.1    296.8   0.002033104   0.01986   0.09268  -0.01430   0.10521
  12   37492.3    266.7   0.001867811   0.01640  -0.07107  -0.09668   0.04475
  13   25267.9    395.8   0.015222059   0.19833   0.07570   0.19587   0.39272
  14   26757.5    373.7   0.011937619   0.14687  -0.13166  -0.29433   0.20715
  15   29105.9    343.6   0.013678318   0.15471   0.34795  -0.09654   0.15596
  16   27218.9    367.4   0.022612062   0.27349   0.17232  -0.18308  -0.45856
  17   31451.5    317.9   0.395839848   4.14337   0.78908  -1.65099   0.89160
  18   26724.6    374.2   0.051721408   0.63714  -0.22209   0.72018  -0.26297
  19   27120.2    368.7   0.197171265   2.39346  -0.73785   0.14901  -1.35160
  20   29649.6    337.3   0.686785530   7.62566   2.71259   0.37310   0.35822
  21   27941.7    357.9   0.228221972   2.68893  -1.04442   1.09289   0.63538
  22   35627.5    280.7   0.370971535   3.42792  -0.91339  -1.55191   0.43037
  23   28729.5    348.1   0.080004090   0.91677  -0.16893  -0.48951  -0.80537
  24   35446.0    282.1   1.164890894  10.81918   0.54231   0.34462   3.22588
  25   33721.5    296.5   0.189946052   1.85438   1.02558   0.69470   0.56565
  26   30118.3    332.0   0.092478282   1.01084   0.78491  -0.59798  -0.19280
  27   30550.5    327.3   0.046658001   0.50279   0.47447   0.49053  -0.19248
  28   34755.6    287.7   0.043043648   0.40772  -0.22025  -0.48054  -0.35818
  29   28259.6    353.9   0.018060814   0.21040   0.30077   0.31668   0.14019
  30   30915.8    323.5   0.108906967   1.15971   1.06890  -0.12968   0.01848
  31   29189.8    342.6   0.008865702   0.09999   0.17628  -0.18338   0.18785
  32   28532.9    350.5   0.010448029   0.12055  -0.06312  -0.21644   0.26404
  33   28936.9    345.6   0.047242417   0.53747  -0.14232  -0.27359  -0.66511
  34   31144.0    321.1   0.038025055   0.40195   0.12537  -0.12853   0.60804
  35   31568.6    316.8   0.079759793   0.83177   0.61399   0.62362  -0.25667
  36   36501.0    274.0   0.371780099   3.35318   1.28535  -1.22929  -0.43578
  37   37430.8    267.2   0.126714561   1.11448  -0.75454  -0.61620   0.40675
  38   42816.0    233.6   0.356772276   2.74322  -0.48803   1.25041  -0.97032
  39   42491.7    235.3   0.157724684   1.22200   0.67337  -0.58232  -0.65534
  40   43942.1    227.6   0.114869717   0.86060  -0.88594  -0.23687  -0.14004

-----------------------------------------------------------------------------
         ABSORPTION SPECTRUM VIA TRANSITION VELOCITY DIPOLE MOMENTS
-----------------------------------------------------------------------------
State   Energy    Wavelength   fosc        P2         PX        PY        PZ  
        (cm-1)      (nm)                 (au**2)     (au)      (au)      (au) 
-----------------------------------------------------------------------------
   1   30488.6    328.0   0.000221741   0.00005  -0.00647  -0.00186   0.00091
   2   30563.9    327.2   0.000188333   0.00004  -0.00294   0.00554  -0.00004
   3   31571.2    316.7   0.000027656   0.00001  -0.00123  -0.00201   0.00065
   4   30369.9    329.3   0.207756302   0.04312  -0.13584   0.08832  -0.12988
   5   26511.4    377.2   0.129231119   0.02342  -0.09127  -0.12119   0.01993
   6   27269.4    366.7   0.194433325   0.03624   0.14873  -0.10691  -0.05183
   7   28503.2    350.8   0.035083125   0.00683   0.05468   0.06124  -0.00972
   8   30999.4    322.6   0.006484226   0.00137   0.02559   0.02629  -0.00527
   9   31463.3    317.8   0.012378949   0.00266   0.03985  -0.02976  -0.01373
  10   34270.4    291.8   0.003579511   0.00084   0.00188   0.02864  -0.00380
  11   33698.1    296.8   0.003019958   0.00070  -0.01716   0.00382  -0.01966
  12   37492.3    266.7   0.001929739   0.00049   0.01210   0.01686  -0.00799
  13   25267.9    395.8   0.035758550   0.00618  -0.01431  -0.03476  -0.06901
  14   26757.5    373.7   0.025897531   0.00474   0.02401   0.05286  -0.03695
  15   29105.9    343.6   0.025070349   0.00499  -0.06227   0.01741  -0.02840
  16   27218.9    367.4   0.048958145   0.00911  -0.03271   0.03398   0.08296
  17   31451.5    317.9   0.620467890   0.13337  -0.14028   0.29597  -0.16155
  18   26724.6    374.2   0.115323460   0.02106   0.03788  -0.13166   0.04791
  19   27120.2    368.7   0.420682176   0.07797   0.13317  -0.02726   0.24392
  20   29649.6    337.3   1.213746724   0.24595  -0.48701  -0.06776  -0.06471
  21   27941.7    357.9   0.463799669   0.08857   0.18982  -0.19808  -0.11535
  22   35627.5    280.7   0.480720605   0.11705   0.16855   0.28685  -0.07977
  23   28729.5    348.1   0.164413170   0.03228   0.03316   0.09153   0.15102
  24   35446.0    282.1   1.582330677   0.38333  -0.10171  -0.06204  -0.60756
  25   33721.5    296.5   0.318770718   0.07347  -0.20169  -0.14980  -0.10172
  26   30118.3    332.0   0.214470150   0.04415  -0.16393   0.12468   0.04159
  27   30550.5    327.3   0.104149472   0.02175  -0.10023  -0.10125   0.03807
  28   34755.6    287.7   0.073347503   0.01742   0.04317   0.09971   0.07494
  29   28259.6    353.9   0.047107809   0.00910  -0.06071  -0.06909  -0.02529
  30   30915.8    323.5   0.242396374   0.05122  -0.22440   0.02924  -0.00283
  31   29189.8    342.6   0.020488811   0.00409  -0.03488   0.03830  -0.03746
  32   28532.9    350.5   0.025687035   0.00501   0.01207   0.04432  -0.05384
  33   28936.9    345.6   0.112914039   0.02233   0.02974   0.05542   0.13556
  34   31144.0    321.1   0.071929191   0.01531  -0.02078   0.02274  -0.11984
  35   31568.6    316.8   0.179136460   0.03865  -0.13122  -0.13584   0.05459
  36   36501.0    274.0   0.640187982   0.15971  -0.28057   0.26810   0.09546
  37   37430.8    267.2   0.208830781   0.05342   0.16509   0.13495  -0.08920
  38   42816.0    233.6   0.456439651   0.13357   0.10579  -0.27711   0.21351
  39   42491.7    235.3   0.218591887   0.06348  -0.15360   0.13319   0.14882
  40   43942.1    227.6   0.146960145   0.04414   0.20017   0.05642   0.02970

-------------------------------------------------------------------
                             CD SPECTRUM
-------------------------------------------------------------------
State  Energy     Wavelength     R         MX        MY        MZ   
       (cm-1)       (nm)     (1e40*cgs)   (au)      (au)      (au)  
-------------------------------------------------------------------
   1   30488.6    328.0     19.82535   0.83883   0.17227  -0.24471
   2   30563.9    327.2     17.22546   0.13826  -0.86954  -0.11108
   3   31571.2    316.7      0.70345  -0.27513   0.07161  -0.86228
   4   30369.9    329.3     -8.10682  -0.33126   0.30749   0.53690
   5   26511.4    377.2    -21.25805  -0.09450   0.02726   0.12387
   6   27269.4    366.7    -36.00315   0.03782  -0.08340   0.02246
   7   28503.2    350.8     -3.70904   0.02723  -0.00939  -0.04971
   8   30999.4    322.6     28.56346  -0.13542  -0.26667   0.03269
   9   31463.3    317.8     22.22371  -0.20037   0.06218  -0.19147
  10   34270.4    291.8      2.56865   0.00462  -0.03698  -0.03008
  11   33698.1    296.8     -9.00384  -0.05133  -0.00643  -0.13718
  12   37492.3    266.7     -0.77430   0.03491  -0.01642  -0.01672
  13   25267.9    395.8     66.97710   0.18778   0.00192   0.32460
  14   26757.5    373.7      3.19948   0.50835  -0.49054  -0.34112
  15   29105.9    343.6    -64.60761  -0.79107  -0.84031   0.36604
  16   27218.9    367.4    -92.71574  -0.82458   0.46374  -0.06615
  17   31451.5    317.9    -610.47045  -0.51122   0.79441   0.47114
  18   26724.6    374.2    -276.16405  -0.07660  -0.81731   0.05390
  19   27120.2    368.7    915.69417  -0.33001  -0.04883  -1.26225
  20   29649.6    337.3    -1005.33802  -0.94402   0.40254   0.77640
  21   27941.7    357.9     53.74380  -0.08788  -0.09301   0.19495
  22   35627.5    280.7    -1783.57469   1.11580   1.66826  -0.40668
  23   28729.5    348.1     54.75688  -0.51899   0.37378  -0.26254
  24   35446.0    282.1    2157.05909   1.22596  -0.73870   1.29115
  25   33721.5    296.5    254.34262  -0.08850   0.34061   0.69589
  26   30118.3    332.0    101.50332   0.19060  -0.08311  -0.08298
  27   30550.5    327.3     73.11684   0.20190   0.00404  -0.29777
  28   34755.6    287.7    -90.15594  -0.16006   0.21457   0.34445
  29   28259.6    353.9    -26.67799  -0.16060  -0.11769   0.20679
  30   30915.8    323.5    -36.12908  -0.06722   0.01487  -0.15441
  31   29189.8    342.6     -0.55449   0.01128   0.06646   0.04803
  32   28532.9    350.5     -0.05244   0.01170  -0.03935  -0.02988
  33   28936.9    345.6    -18.94344  -0.02932   0.05672   0.04336
  34   31144.0    321.1     42.76108  -0.09023   0.05056   0.17846
  35   31568.6    316.8    -25.91129  -0.13051   0.12722   0.21102
  36   36501.0    274.0    -20.02729   0.03509   0.10047  -0.08242
  37   37430.8    267.2      1.52797   0.00206  -0.00783  -0.00007
  38   42816.0    233.6    -41.20141   0.35335  -0.50039  -0.73248
  39   42491.7    235.3     24.67448  -0.08529   0.09758  -0.25421
  40   43942.1    227.6    -116.14789   0.36441  -0.06186  -0.44148

-------------------------------------------------------------------
         CD SPECTRUM VIA TRANSITION VELOCITY DIPOLE MOMENTS        
-------------------------------------------------------------------
State  Energy     Wavelength     R         MX        MY        MZ   
       (cm-1)       (nm)     (1e40*cgs)   (au)      (au)      (au)  
-------------------------------------------------------------------
   1   30488.6    328.0     20.27312   0.83883   0.17227  -0.24471
   2   30563.9    327.2     17.67126   0.13826  -0.86954  -0.11108
   3   31571.2    316.7      1.21085  -0.27513   0.07161  -0.86228
   4   30369.9    329.3     -8.24898  -0.33126   0.30749   0.53690
   5   26511.4    377.2    -30.40608  -0.09450   0.02726   0.12387
   6   27269.4    366.7    -50.76029   0.03782  -0.08340   0.02246
   7   28503.2    350.8     -5.07079   0.02723  -0.00939  -0.04971
   8   30999.4    322.6     35.54121  -0.13542  -0.26667   0.03269
   9   31463.3    317.8     23.69385  -0.20037   0.06218  -0.19147
  10   34270.4    291.8      2.82713   0.00462  -0.03698  -0.03008
  11   33698.1    296.8    -10.90993  -0.05133  -0.00643  -0.13718
  12   37492.3    266.7     -0.77123   0.03491  -0.01642  -0.01672
  13   25267.9    395.8    103.00684   0.18778   0.00192   0.32460
  14   26757.5    373.7      4.33586   0.50835  -0.49054  -0.34112
  15   29105.9    343.6    -86.13909  -0.79107  -0.84031   0.36604
  16   27218.9    367.4    -141.58579  -0.82458   0.46374  -0.06615
  17   31451.5    317.9    -759.03721  -0.51122   0.79441   0.47114
  18   26724.6    374.2    -415.39265  -0.07660  -0.81731   0.05390
  19   27120.2    368.7    1337.28922  -0.33001  -0.04883  -1.26225
  20   29649.6    337.3    -1333.90238  -0.94402   0.40254   0.77640
  21   27941.7    357.9     76.81573  -0.08788  -0.09301   0.19495
  22   35627.5    280.7    -2030.20454   1.11580   1.66826  -0.40668
  23   28729.5    348.1     81.56080  -0.51899   0.37378  -0.26254
  24   35446.0    282.1    2520.12538   1.22596  -0.73870   1.29115
  25   33721.5    296.5    319.00088  -0.08850   0.34061   0.69589
  26   30118.3    332.0    154.79711   0.19060  -0.08311  -0.08298
  27   30550.5    327.3    108.31255   0.20190   0.00404  -0.29777
  28   34755.6    287.7    -119.97423  -0.16006   0.21457   0.34445
  29   28259.6    353.9    -46.32083  -0.16060  -0.11769   0.20679
  30   30915.8    323.5    -53.40363  -0.06722   0.01487  -0.15441
  31   29189.8    342.6     -1.25079   0.01128   0.06646   0.04803
  32   28532.9    350.5     -0.02171   0.01170  -0.03935  -0.02988
  33   28936.9    345.6    -29.13748  -0.02932   0.05672   0.04336
  34   31144.0    321.1     61.00514  -0.09023   0.05056   0.17846
  35   31568.6    316.8    -37.25166  -0.13051   0.12722   0.21102
  36   36501.0    274.0    -26.14021   0.03509   0.10047  -0.08242
  37   37430.8    267.2      1.96293   0.00206  -0.00783  -0.00007
  38   42816.0    233.6    -47.49079   0.35335  -0.50039  -0.73248
  39   42491.7    235.3     28.57121  -0.08529   0.09758  -0.25421
  40   43942.1    227.6    -132.66822   0.36441  -0.06186  -0.44148

Total run time:     7404.667 sec

           *** ORCA-CIS/TD-DFT FINISHED WITHOUT ERROR ***

Maximum memory used throughout the entire CIS-calculation: 4429.2 MB

-----------------------
CIS/TD-DFT TOTAL ENERGY
-----------------------

    E(SCF)  =  -1919.608424248 Eh
    DE(CIS) =      0.138916210 Eh (Root  1)
    ----------------------------- ---------
    E(tot)  =  -1919.469508038 Eh


-------------------------   --------------------
FINAL SINGLE POINT ENERGY     -1919.469508037835
-------------------------   --------------------


                            ***************************************
                            *     ORCA property calculations      *
                            ***************************************


  WARNING: The energy has been calculated at the MP2 level but the densities
           used in the property calculations are still SCF densities
           MP2 response densities have not been calculated 
           use %mp2 Density relaxed end
           or  %mp2 Density unrelaxed end

                                    ---------------------
                                    Active property flags
                                    ---------------------
   (+) Dipole Moment


------------------------------------------------------------------------------
                       ORCA ELECTRIC PROPERTIES CALCULATION
------------------------------------------------------------------------------

Dipole Moment Calculation                       ... on
Quadrupole Moment Calculation                   ... off
Polarizability Calculation                      ... off
GBWName                                         ... Ru-PRC_2_SOS-wPBEPP86_def2SVP.gbw
Electron density                                ... Ru-PRC_2_SOS-wPBEPP86_def2SVP.scfp
The origin for moment calculation is the CENTER OF MASS  = ( 0.048935, -0.006031  0.029029)

-------------
DIPOLE MOMENT
-------------
                                X             Y             Z
Electronic contribution:     35.81653      -1.76631      19.81028
Nuclear contribution   :    -34.75061       1.93911     -19.30544
                        -----------------------------------------
Total Dipole Moment    :      1.06592       0.17280       0.50484
                        -----------------------------------------
Magnitude (a.u.)       :      1.19202
Magnitude (Debye)      :      3.02987



--------------------
Rotational spectrum 
--------------------
 
Rotational constants in cm-1:     0.002931     0.002526     0.002104 
Rotational constants in MHz :    87.864409    75.721626    63.072758 

 Dipole components along the rotational axes: 
x,y,z [a.u.] :    -1.058666     0.167525     0.521605 
x,y,z [Debye]:    -2.690914     0.425816     1.325816 

 

Timings for individual modules:

Sum of individual times         ...     8248.087 sec (= 137.468 min)
GTO integral calculation        ...        6.350 sec (=   0.106 min)   0.1 %
SCF iterations                  ...      547.031 sec (=   9.117 min)   6.6 %
MP2 module                      ...      287.507 sec (=   4.792 min)   3.5 %
CIS module                      ...     7407.199 sec (= 123.453 min)  89.8 %
                             ****ORCA TERMINATED NORMALLY****
TOTAL RUN TIME: 0 days 2 hours 17 minutes 30 seconds 883 msec
