 Entering Gaussian System, Link 0=g16
 Input=/project/home/png4rjv/photocat/TMPC_bench/gaussian/B97D3/Ru-PRC_2_B97D3_def2SVP.gjf
 Output=/project/home/png4rjv/photocat/TMPC_bench/gaussian/B97D3/Ru-PRC_2_B97D3_def2SVP.log
 Initial command:
 /opt/software/packages/g16/l1.exe "/scratch/ligandum/png4rjv/3354951/Gau-3218636.inp" -scrdir="/scratch/ligandum/png4rjv/3354951/"
 Default is to use a total of  12 processors:
                               12 via shared-memory
                                1 via Linda
 Entering Link 1 = /opt/software/packages/g16/l1.exe PID=   3218642.
  
 Copyright (c) 1988-2021, Gaussian, Inc.  All Rights Reserved.
  
 This is part of the Gaussian(R) 16 program.  It is based on
 the Gaussian(R) 09 system (copyright 2009, Gaussian, Inc.),
 the Gaussian(R) 03 system (copyright 2003, Gaussian, Inc.),
 the Gaussian(R) 98 system (copyright 1998, Gaussian, Inc.),
 the Gaussian(R) 94 system (copyright 1995, Gaussian, Inc.),
 the Gaussian 92(TM) system (copyright 1992, Gaussian, Inc.),
 the Gaussian 90(TM) system (copyright 1990, Gaussian, Inc.),
 the Gaussian 88(TM) system (copyright 1988, Gaussian, Inc.),
 the Gaussian 86(TM) system (copyright 1986, Carnegie Mellon
 University), and the Gaussian 82(TM) system (copyright 1983,
 Carnegie Mellon University). Gaussian is a federally registered
 trademark of Gaussian, Inc.
  
 This software contains proprietary and confidential information,
 including trade secrets, belonging to Gaussian, Inc.
  
 This software is provided under written license and may be
 used, copied, transmitted, or stored only in accord with that
 written license.
  
 The following legend is applicable only to US Government
 contracts under FAR:
  
                    RESTRICTED RIGHTS LEGEND
  
 Use, reproduction and disclosure by the US Government is
 subject to restrictions as set forth in subparagraphs (a)
 and (c) of the Commercial Computer Software - Restricted
 Rights clause in FAR 52.227-19.
  
 Gaussian, Inc.
 340 Quinnipiac St., Bldg. 40, Wallingford CT 06492
  
  
 ---------------------------------------------------------------
 Warning -- This program may not be used in any manner that
 competes with the business of Gaussian, Inc. or will provide
 assistance to any competitor of Gaussian, Inc.  The licensee
 of this program is prohibited from giving any competitor of
 Gaussian, Inc. access to this program.  By using this program,
 the user acknowledges that Gaussian, Inc. is engaged in the
 business of creating and licensing software in the field of
 computational chemistry and represents and warrants to the
 licensee that it is not a competitor of Gaussian, Inc. and that
 it will not use this program in any manner prohibited above.
 ---------------------------------------------------------------
  

 Cite this work as:
 Gaussian 16, Revision C.02,
 M. J. Frisch, G. W. Trucks, H. B. Schlegel, G. E. Scuseria, 
 M. A. Robb, J. R. Cheeseman, G. Scalmani, V. Barone, 
 G. A. Petersson, H. Nakatsuji, X. Li, M. Caricato, A. V. Marenich, 
 J. Bloino, B. G. Janesko, R. Gomperts, B. Mennucci, H. P. Hratchian, 
 J. V. Ortiz, A. F. Izmaylov, J. L. Sonnenberg, D. Williams-Young, 
 F. Ding, F. Lipparini, F. Egidi, J. Goings, B. Peng, A. Petrone, 
 T. Henderson, D. Ranasinghe, V. G. Zakrzewski, J. Gao, N. Rega, 
 G. Zheng, W. Liang, M. Hada, M. Ehara, K. Toyota, R. Fukuda, 
 J. Hasegawa, M. Ishida, T. Nakajima, Y. Honda, O. Kitao, H. Nakai, 
 T. Vreven, K. Throssell, J. A. Montgomery, Jr., J. E. Peralta, 
 F. Ogliaro, M. J. Bearpark, J. J. Heyd, E. N. Brothers, K. N. Kudin, 
 V. N. Staroverov, T. A. Keith, R. Kobayashi, J. Normand, 
 K. Raghavachari, A. P. Rendell, J. C. Burant, S. S. Iyengar, 
 J. Tomasi, M. Cossi, J. M. Millam, M. Klene, C. Adamo, R. Cammi, 
 J. W. Ochterski, R. L. Martin, K. Morokuma, O. Farkas, 
 J. B. Foresman, and D. J. Fox, Gaussian, Inc., Wallingford CT, 2019.
 
 ******************************************
 Gaussian 16:  AS64L-G16RevC.02  7-Dec-2021
                19-Dec-2023 
 ******************************************
 %chk=cp.chk
 %NProcshared=16
 Will use up to   16 processors via shared memory.
 Default route: MaxDisk=500GB
 ----------------------------------------------------------------------
 #p B97D3/def2svp opt Symmetry=None int=ultrafine scrf=(SMD,solvent=n,n
 -DiMethylFormamide)
 ----------------------------------------------------------------------
 1/18=20,19=15,26=6,38=1/1,3;
 2/9=110,12=2,15=3,17=6,18=5,40=1/2;
 3/5=43,7=101,11=2,25=1,30=1,70=32201,71=1,72=148,74=-59,75=-5/1,2,3;
 4//1;
 5/5=2,38=5,53=148/2;
 6/7=2,8=2,9=2,10=2,28=1/1;
 7/30=1/1,2,3,16;
 1/18=20,19=15,26=6/3(2);
 2/9=110,15=3/2;
 99//99;
 2/9=110,15=3/2;
 3/5=43,7=101,11=2,25=1,30=1,70=32205,71=1,72=148,74=-59,75=-5/1,2,3;
 4/5=5,16=3,69=1/1;
 5/5=2,38=5,53=148/2;
 7/30=1/1,2,3,16;
 1/18=20,19=15,26=6/3(-5);
 2/9=110,15=3/2;
 6/7=2,8=2,9=2,10=2,19=2,28=1/1;
 99/9=1/99;
 Leave Link    1 at Tue Dec 19 13:12:28 2023, MaxMem=           0 cpu:               0.1 elap:               0.1
 (Enter /opt/software/packages/g16/l101.exe)
 -----
 Title
 -----
 Symbolic Z-matrix:
 Charge =  2 Multiplicity = 1
 C                    -1.67763  -2.06918   0.26663 
 C                    -2.41977  -0.35507  -1.10526 
 C                    -3.64055  -1.01298  -1.38146 
 C                    -3.83978  -2.26012  -0.78604 
 C                    -2.86018  -2.81414   0.05349 
 C                    -0.64604  -2.57042   1.10932 
 C                     1.44309  -2.22864   2.0545 
 C                     1.37107  -3.45611   2.72595 
 C                     0.25377  -4.258     2.5788 
 C                    -0.79899  -3.82255   1.74914 
 H                    -2.20349   0.61918  -1.5463 
 H                    -4.7567   -2.82686  -0.95694 
 H                     2.31664  -1.58092   2.16093 
 H                     2.2052   -3.76067   3.35882 
 H                     0.17641  -5.21804   3.09327 
 C                    -0.6734    2.70838  -0.05312 
 C                     0.28364   2.10199  -2.07679 
 C                    -0.06962   3.33264  -2.64593 
 C                    -0.7415    4.27374  -1.88864 
 C                    -1.06092   3.97553  -0.54795 
 C                    -0.9823    2.33684   1.28748 
 C                    -0.86513   0.71555   2.94085 
 C                    -1.52817   1.5517    3.84901 
 C                    -1.93001   2.81414   3.45519 
 C                    -1.6609    3.24065   2.13825 
 H                     0.81431   1.34565  -2.66005 
 H                     0.19566   3.52843  -3.68532 
 H                    -1.02609   5.23987  -2.31036 
 H                    -0.54139  -0.28591   3.2344 
 H                    -1.72009   1.18704   4.85864 
 H                    -2.45085   3.48179   4.14451 
 C                     3.23412   0.19881  -0.22862 
 C                     2.6834    1.39646   1.67892 
 C                     4.02352   1.7544    1.87622 
 C                     4.99044   1.31828   0.98985 
 C                     4.60717   0.51521  -0.10406 
 C                     2.77992  -0.61362  -1.30749 
 C                     0.98382  -1.63523  -2.36009 
 C                     1.82486  -2.15757  -3.35149 
 C                     3.18148  -1.89534  -3.31194 
 C                     3.69765  -1.10225  -2.26647 
 H                     1.90544   1.73094   2.36952 
 H                     6.04068   1.5855    1.12344 
 H                    -0.09133  -1.82982  -2.37615 
 H                     3.85546  -2.29168  -4.07408 
 N                     2.29072   0.63576   0.65528 
 N                     0.46104  -1.78767   1.26546 
 N                    -0.59313   1.09239   1.6901 
 N                    -1.47103  -0.85748  -0.31699 
 N                    -0.01102   1.78871  -0.81333 
 N                     1.44226  -0.87809  -1.36145 
 Ru                    0.36081  -0.00017   0.1893 
 C                     5.51802   0.00759  -1.08472 
 C                     5.08178  -0.76687  -2.12216 
 C                    -2.00317  -4.56431   1.51983 
 C                    -2.99008  -4.08297   0.70779 
 C                    -2.03492   4.52072   1.61867 
 C                    -1.7502    4.87195   0.32958 
 H                     5.78529  -1.14774  -2.86537 
 H                     6.57648   0.25619  -0.98347 
 H                    -3.90321  -4.65856   0.54244 
 H                    -2.11475  -5.53118   2.01503 
 H                    -2.04404   5.84955  -0.0582 
 H                    -2.55962   5.21305   2.28029 
 H                     4.28252   2.37741   2.73292 
 H                     1.39051  -2.768    -4.1439 
 C                    -4.63221  -0.36219  -2.26658 
 C                    -5.80902  -0.94423  -2.562 
 H                    -6.10834  -1.921    -2.17663 
 H                    -6.52586  -0.44316  -3.21675 
 C                    -4.28435   0.98138  -2.82738 
 H                    -4.09874   1.72172  -2.03314 
 H                    -3.36835   0.94781  -3.43803 
 H                    -5.09265   1.36666  -3.45977 
 
 ITRead=  0  0  0  0  0  0  0  0  0  0  0  0  0  0  0  0  0  0  0  0
 ITRead=  0  0  0  0  0  0  0  0  0  0  0  0  0  0  0  0  0  0  0  0
 ITRead=  0  0  0  0  0  0  0  0  0  0  0  0  0  0  0  0  0  0  0  0
 ITRead=  0  0  0  0  0  0  0  0  0  0  0  0  0  0
 MicOpt= -1 -1 -1 -1 -1 -1 -1 -1 -1 -1 -1 -1 -1 -1 -1 -1 -1 -1 -1 -1
 MicOpt= -1 -1 -1 -1 -1 -1 -1 -1 -1 -1 -1 -1 -1 -1 -1 -1 -1 -1 -1 -1
 MicOpt= -1 -1 -1 -1 -1 -1 -1 -1 -1 -1 -1 -1 -1 -1 -1 -1 -1 -1 -1 -1
 MicOpt= -1 -1 -1 -1 -1 -1 -1 -1 -1 -1 -1 -1 -1 -1
 NAtoms=     74 NQM=       74 NQMF=       0 NMMI=      0 NMMIF=      0
                NMic=       0 NMicF=      0.
                    Isotopes and Nuclear Properties:
 (Nuclear quadrupole moments (NQMom) in fm**2, nuclear magnetic moments (NMagM)
  in nuclear magnetons)

  Atom         1           2           3           4           5           6           7           8           9          10
 IAtWgt=          12          12          12          12          12          12          12          12          12          12
 AtmWgt=  12.0000000  12.0000000  12.0000000  12.0000000  12.0000000  12.0000000  12.0000000  12.0000000  12.0000000  12.0000000
 NucSpn=           0           0           0           0           0           0           0           0           0           0
 AtZEff=  -0.0000000  -0.0000000  -0.0000000  -0.0000000  -0.0000000  -0.0000000  -0.0000000  -0.0000000  -0.0000000  -0.0000000
 NQMom=    0.0000000   0.0000000   0.0000000   0.0000000   0.0000000   0.0000000   0.0000000   0.0000000   0.0000000   0.0000000
 NMagM=    0.0000000   0.0000000   0.0000000   0.0000000   0.0000000   0.0000000   0.0000000   0.0000000   0.0000000   0.0000000
 AtZNuc=   6.0000000   6.0000000   6.0000000   6.0000000   6.0000000   6.0000000   6.0000000   6.0000000   6.0000000   6.0000000

  Atom        11          12          13          14          15          16          17          18          19          20
 IAtWgt=           1           1           1           1           1          12          12          12          12          12
 AtmWgt=   1.0078250   1.0078250   1.0078250   1.0078250   1.0078250  12.0000000  12.0000000  12.0000000  12.0000000  12.0000000
 NucSpn=           1           1           1           1           1           0           0           0           0           0
 AtZEff=  -0.0000000  -0.0000000  -0.0000000  -0.0000000  -0.0000000  -0.0000000  -0.0000000  -0.0000000  -0.0000000  -0.0000000
 NQMom=    0.0000000   0.0000000   0.0000000   0.0000000   0.0000000   0.0000000   0.0000000   0.0000000   0.0000000   0.0000000
 NMagM=    2.7928460   2.7928460   2.7928460   2.7928460   2.7928460   0.0000000   0.0000000   0.0000000   0.0000000   0.0000000
 AtZNuc=   1.0000000   1.0000000   1.0000000   1.0000000   1.0000000   6.0000000   6.0000000   6.0000000   6.0000000   6.0000000

  Atom        21          22          23          24          25          26          27          28          29          30
 IAtWgt=          12          12          12          12          12           1           1           1           1           1
 AtmWgt=  12.0000000  12.0000000  12.0000000  12.0000000  12.0000000   1.0078250   1.0078250   1.0078250   1.0078250   1.0078250
 NucSpn=           0           0           0           0           0           1           1           1           1           1
 AtZEff=  -0.0000000  -0.0000000  -0.0000000  -0.0000000  -0.0000000  -0.0000000  -0.0000000  -0.0000000  -0.0000000  -0.0000000
 NQMom=    0.0000000   0.0000000   0.0000000   0.0000000   0.0000000   0.0000000   0.0000000   0.0000000   0.0000000   0.0000000
 NMagM=    0.0000000   0.0000000   0.0000000   0.0000000   0.0000000   2.7928460   2.7928460   2.7928460   2.7928460   2.7928460
 AtZNuc=   6.0000000   6.0000000   6.0000000   6.0000000   6.0000000   1.0000000   1.0000000   1.0000000   1.0000000   1.0000000

  Atom        31          32          33          34          35          36          37          38          39          40
 IAtWgt=           1          12          12          12          12          12          12          12          12          12
 AtmWgt=   1.0078250  12.0000000  12.0000000  12.0000000  12.0000000  12.0000000  12.0000000  12.0000000  12.0000000  12.0000000
 NucSpn=           1           0           0           0           0           0           0           0           0           0
 AtZEff=  -0.0000000  -0.0000000  -0.0000000  -0.0000000  -0.0000000  -0.0000000  -0.0000000  -0.0000000  -0.0000000  -0.0000000
 NQMom=    0.0000000   0.0000000   0.0000000   0.0000000   0.0000000   0.0000000   0.0000000   0.0000000   0.0000000   0.0000000
 NMagM=    2.7928460   0.0000000   0.0000000   0.0000000   0.0000000   0.0000000   0.0000000   0.0000000   0.0000000   0.0000000
 AtZNuc=   1.0000000   6.0000000   6.0000000   6.0000000   6.0000000   6.0000000   6.0000000   6.0000000   6.0000000   6.0000000

  Atom        41          42          43          44          45          46          47          48          49          50
 IAtWgt=          12           1           1           1           1          14          14          14          14          14
 AtmWgt=  12.0000000   1.0078250   1.0078250   1.0078250   1.0078250  14.0030740  14.0030740  14.0030740  14.0030740  14.0030740
 NucSpn=           0           1           1           1           1           2           2           2           2           2
 AtZEff=  -0.0000000  -0.0000000  -0.0000000  -0.0000000  -0.0000000  -0.0000000  -0.0000000  -0.0000000  -0.0000000  -0.0000000
 NQMom=    0.0000000   0.0000000   0.0000000   0.0000000   0.0000000   2.0440000   2.0440000   2.0440000   2.0440000   2.0440000
 NMagM=    0.0000000   2.7928460   2.7928460   2.7928460   2.7928460   0.4037610   0.4037610   0.4037610   0.4037610   0.4037610
 AtZNuc=   6.0000000   1.0000000   1.0000000   1.0000000   1.0000000   7.0000000   7.0000000   7.0000000   7.0000000   7.0000000

  Atom        51          52          53          54          55          56          57          58          59          60
 IAtWgt=          14         102          12          12          12          12          12          12           1           1
 AtmWgt=  14.0030740 101.9037000  12.0000000  12.0000000  12.0000000  12.0000000  12.0000000  12.0000000   1.0078250   1.0078250
 NucSpn=           2           0           0           0           0           0           0           0           1           1
 AtZEff=  -0.0000000  -0.0000000  -0.0000000  -0.0000000  -0.0000000  -0.0000000  -0.0000000  -0.0000000  -0.0000000  -0.0000000
 NQMom=    2.0440000   0.0000000   0.0000000   0.0000000   0.0000000   0.0000000   0.0000000   0.0000000   0.0000000   0.0000000
 NMagM=    0.4037610   0.0000000   0.0000000   0.0000000   0.0000000   0.0000000   0.0000000   0.0000000   2.7928460   2.7928460
 AtZNuc=   7.0000000  44.0000000   6.0000000   6.0000000   6.0000000   6.0000000   6.0000000   6.0000000   1.0000000   1.0000000

  Atom        61          62          63          64          65          66          67          68          69          70
 IAtWgt=           1           1           1           1           1           1          12          12           1           1
 AtmWgt=   1.0078250   1.0078250   1.0078250   1.0078250   1.0078250   1.0078250  12.0000000  12.0000000   1.0078250   1.0078250
 NucSpn=           1           1           1           1           1           1           0           0           1           1
 AtZEff=  -0.0000000  -0.0000000  -0.0000000  -0.0000000  -0.0000000  -0.0000000  -0.0000000  -0.0000000  -0.0000000  -0.0000000
 NQMom=    0.0000000   0.0000000   0.0000000   0.0000000   0.0000000   0.0000000   0.0000000   0.0000000   0.0000000   0.0000000
 NMagM=    2.7928460   2.7928460   2.7928460   2.7928460   2.7928460   2.7928460   0.0000000   0.0000000   2.7928460   2.7928460
 AtZNuc=   1.0000000   1.0000000   1.0000000   1.0000000   1.0000000   1.0000000   6.0000000   6.0000000   1.0000000   1.0000000

  Atom        71          72          73          74
 IAtWgt=          12           1           1           1
 AtmWgt=  12.0000000   1.0078250   1.0078250   1.0078250
 NucSpn=           0           1           1           1
 AtZEff=  -0.0000000  -0.0000000  -0.0000000  -0.0000000
 NQMom=    0.0000000   0.0000000   0.0000000   0.0000000
 NMagM=    0.0000000   2.7928460   2.7928460   2.7928460
 AtZNuc=   6.0000000   1.0000000   1.0000000   1.0000000
 Leave Link  101 at Tue Dec 19 13:12:28 2023, MaxMem=  2831155200 cpu:               0.1 elap:               0.2
 (Enter /opt/software/packages/g16/l103.exe)

 GradGradGradGradGradGradGradGradGradGradGradGradGradGradGradGradGradGrad
 Berny optimization.
 Initialization pass.
                           ----------------------------
                           !    Initial Parameters    !
                           ! (Angstroms and Degrees)  !
 --------------------------                            --------------------------
 ! Name  Definition              Value          Derivative Info.                !
 --------------------------------------------------------------------------------
 ! R1    R(1,5)                  1.4138         estimate D2E/DX2                !
 ! R2    R(1,6)                  1.4232         estimate D2E/DX2                !
 ! R3    R(1,49)                 1.3607         estimate D2E/DX2                !
 ! R4    R(2,3)                  1.414          estimate D2E/DX2                !
 ! R5    R(2,11)                 1.0911         estimate D2E/DX2                !
 ! R6    R(2,49)                 1.3319         estimate D2E/DX2                !
 ! R7    R(3,4)                  1.3963         estimate D2E/DX2                !
 ! R8    R(3,67)                 1.48           estimate D2E/DX2                !
 ! R9    R(4,5)                  1.404          estimate D2E/DX2                !
 ! R10   R(4,12)                 1.0914         estimate D2E/DX2                !
 ! R11   R(5,56)                 1.4335         estimate D2E/DX2                !
 ! R12   R(6,10)                 1.4144         estimate D2E/DX2                !
 ! R13   R(6,47)                 1.3648         estimate D2E/DX2                !
 ! R14   R(7,8)                  1.401          estimate D2E/DX2                !
 ! R15   R(7,13)                 1.0927         estimate D2E/DX2                !
 ! R16   R(7,47)                 1.3347         estimate D2E/DX2                !
 ! R17   R(8,9)                  1.3831         estimate D2E/DX2                !
 ! R18   R(8,14)                 1.0904         estimate D2E/DX2                !
 ! R19   R(9,10)                 1.4093         estimate D2E/DX2                !
 ! R20   R(9,15)                 1.0919         estimate D2E/DX2                !
 ! R21   R(10,55)                1.4328         estimate D2E/DX2                !
 ! R22   R(16,20)                1.4145         estimate D2E/DX2                !
 ! R23   R(16,21)                1.425          estimate D2E/DX2                !
 ! R24   R(16,50)                1.3647         estimate D2E/DX2                !
 ! R25   R(17,18)                1.4011         estimate D2E/DX2                !
 ! R26   R(17,26)                1.0926         estimate D2E/DX2                !
 ! R27   R(17,50)                1.3347         estimate D2E/DX2                !
 ! R28   R(18,19)                1.3822         estimate D2E/DX2                !
 ! R29   R(18,27)                1.0904         estimate D2E/DX2                !
 ! R30   R(19,20)                1.4101         estimate D2E/DX2                !
 ! R31   R(19,28)                1.0919         estimate D2E/DX2                !
 ! R32   R(20,58)                1.4313         estimate D2E/DX2                !
 ! R33   R(21,25)                1.4146         estimate D2E/DX2                !
 ! R34   R(21,48)                1.3646         estimate D2E/DX2                !
 ! R35   R(22,23)                1.4013         estimate D2E/DX2                !
 ! R36   R(22,29)                1.0927         estimate D2E/DX2                !
 ! R37   R(22,48)                1.3343         estimate D2E/DX2                !
 ! R38   R(23,24)                1.3822         estimate D2E/DX2                !
 ! R39   R(23,30)                1.0905         estimate D2E/DX2                !
 ! R40   R(24,25)                1.4102         estimate D2E/DX2                !
 ! R41   R(24,31)                1.0919         estimate D2E/DX2                !
 ! R42   R(25,57)                1.4312         estimate D2E/DX2                !
 ! R43   R(32,36)                1.4145         estimate D2E/DX2                !
 ! R44   R(32,37)                1.4249         estimate D2E/DX2                !
 ! R45   R(32,46)                1.3646         estimate D2E/DX2                !
 ! R46   R(33,34)                1.4011         estimate D2E/DX2                !
 ! R47   R(33,42)                1.0927         estimate D2E/DX2                !
 ! R48   R(33,46)                1.3344         estimate D2E/DX2                !
 ! R49   R(34,35)                1.3823         estimate D2E/DX2                !
 ! R50   R(34,65)                1.0905         estimate D2E/DX2                !
 ! R51   R(35,36)                1.4101         estimate D2E/DX2                !
 ! R52   R(35,43)                1.0919         estimate D2E/DX2                !
 ! R53   R(36,53)                1.4314         estimate D2E/DX2                !
 ! R54   R(37,41)                1.4144         estimate D2E/DX2                !
 ! R55   R(37,51)                1.3646         estimate D2E/DX2                !
 ! R56   R(38,39)                1.4011         estimate D2E/DX2                !
 ! R57   R(38,44)                1.0927         estimate D2E/DX2                !
 ! R58   R(38,51)                1.3344         estimate D2E/DX2                !
 ! R59   R(39,40)                1.3823         estimate D2E/DX2                !
 ! R60   R(39,66)                1.0905         estimate D2E/DX2                !
 ! R61   R(40,41)                1.4101         estimate D2E/DX2                !
 ! R62   R(40,45)                1.0919         estimate D2E/DX2                !
 ! R63   R(41,54)                1.4315         estimate D2E/DX2                !
 ! R64   R(46,52)                2.0847         estimate D2E/DX2                !
 ! R65   R(47,52)                2.0889         estimate D2E/DX2                !
 ! R66   R(48,52)                2.0871         estimate D2E/DX2                !
 ! R67   R(49,52)                2.0849         estimate D2E/DX2                !
 ! R68   R(50,52)                2.0841         estimate D2E/DX2                !
 ! R69   R(51,52)                2.0845         estimate D2E/DX2                !
 ! R70   R(53,54)                1.3661         estimate D2E/DX2                !
 ! R71   R(53,60)                1.092          estimate D2E/DX2                !
 ! R72   R(54,59)                1.0919         estimate D2E/DX2                !
 ! R73   R(55,56)                1.3657         estimate D2E/DX2                !
 ! R74   R(55,62)                1.092          estimate D2E/DX2                !
 ! R75   R(56,61)                1.092          estimate D2E/DX2                !
 ! R76   R(57,58)                1.3661         estimate D2E/DX2                !
 ! R77   R(57,64)                1.092          estimate D2E/DX2                !
 ! R78   R(58,63)                1.092          estimate D2E/DX2                !
 ! R79   R(67,68)                1.3457         estimate D2E/DX2                !
 ! R80   R(67,71)                1.4969         estimate D2E/DX2                !
 ! R81   R(68,69)                1.0919         estimate D2E/DX2                !
 ! R82   R(68,70)                1.0925         estimate D2E/DX2                !
 ! R83   R(71,72)                1.1015         estimate D2E/DX2                !
 ! R84   R(71,73)                1.1014         estimate D2E/DX2                !
 ! R85   R(71,74)                1.0962         estimate D2E/DX2                !
 ! A1    A(5,1,6)              120.6613         estimate D2E/DX2                !
 ! A2    A(5,1,49)             122.1107         estimate D2E/DX2                !
 ! A3    A(6,1,49)             117.2279         estimate D2E/DX2                !
 ! A4    A(3,2,11)             120.5066         estimate D2E/DX2                !
 ! A5    A(3,2,49)             123.7165         estimate D2E/DX2                !
 ! A6    A(11,2,49)            115.7766         estimate D2E/DX2                !
 ! A7    A(2,3,4)              117.0953         estimate D2E/DX2                !
 ! A8    A(2,3,67)             119.3872         estimate D2E/DX2                !
 ! A9    A(4,3,67)             123.5173         estimate D2E/DX2                !
 ! A10   A(3,4,5)              120.5222         estimate D2E/DX2                !
 ! A11   A(3,4,12)             121.1251         estimate D2E/DX2                !
 ! A12   A(5,4,12)             118.3525         estimate D2E/DX2                !
 ! A13   A(1,5,4)              117.7622         estimate D2E/DX2                !
 ! A14   A(1,5,56)             118.2542         estimate D2E/DX2                !
 ! A15   A(4,5,56)             123.9833         estimate D2E/DX2                !
 ! A16   A(1,6,10)             120.0816         estimate D2E/DX2                !
 ! A17   A(1,6,47)             116.9816         estimate D2E/DX2                !
 ! A18   A(10,6,47)            122.9349         estimate D2E/DX2                !
 ! A19   A(8,7,13)             120.9157         estimate D2E/DX2                !
 ! A20   A(8,7,47)             122.3429         estimate D2E/DX2                !
 ! A21   A(13,7,47)            116.7407         estimate D2E/DX2                !
 ! A22   A(7,8,9)              119.9009         estimate D2E/DX2                !
 ! A23   A(7,8,14)             118.9179         estimate D2E/DX2                !
 ! A24   A(9,8,14)             121.1812         estimate D2E/DX2                !
 ! A25   A(8,9,10)             119.1382         estimate D2E/DX2                !
 ! A26   A(8,9,15)             121.1206         estimate D2E/DX2                !
 ! A27   A(10,9,15)            119.7411         estimate D2E/DX2                !
 ! A28   A(6,10,9)             117.3247         estimate D2E/DX2                !
 ! A29   A(6,10,55)            118.4761         estimate D2E/DX2                !
 ! A30   A(9,10,55)            124.1991         estimate D2E/DX2                !
 ! A31   A(20,16,21)           120.2184         estimate D2E/DX2                !
 ! A32   A(20,16,50)           122.8067         estimate D2E/DX2                !
 ! A33   A(21,16,50)           116.9721         estimate D2E/DX2                !
 ! A34   A(18,17,26)           120.9041         estimate D2E/DX2                !
 ! A35   A(18,17,50)           122.3464         estimate D2E/DX2                !
 ! A36   A(26,17,50)           116.7484         estimate D2E/DX2                !
 ! A37   A(17,18,19)           119.8682         estimate D2E/DX2                !
 ! A38   A(17,18,27)           118.9178         estimate D2E/DX2                !
 ! A39   A(19,18,27)           121.2139         estimate D2E/DX2                !
 ! A40   A(18,19,20)           119.1449         estimate D2E/DX2                !
 ! A41   A(18,19,28)           121.1653         estimate D2E/DX2                !
 ! A42   A(20,19,28)           119.6897         estimate D2E/DX2                !
 ! A43   A(16,20,19)           117.3881         estimate D2E/DX2                !
 ! A44   A(16,20,58)           118.588          estimate D2E/DX2                !
 ! A45   A(19,20,58)           124.0238         estimate D2E/DX2                !
 ! A46   A(16,21,25)           120.2112         estimate D2E/DX2                !
 ! A47   A(16,21,48)           116.969          estimate D2E/DX2                !
 ! A48   A(25,21,48)           122.8197         estimate D2E/DX2                !
 ! A49   A(23,22,29)           120.8631         estimate D2E/DX2                !
 ! A50   A(23,22,48)           122.3741         estimate D2E/DX2                !
 ! A51   A(29,22,48)           116.7624         estimate D2E/DX2                !
 ! A52   A(22,23,24)           119.8639         estimate D2E/DX2                !
 ! A53   A(22,23,30)           118.9329         estimate D2E/DX2                !
 ! A54   A(24,23,30)           121.2029         estimate D2E/DX2                !
 ! A55   A(23,24,25)           119.134          estimate D2E/DX2                !
 ! A56   A(23,24,31)           121.1521         estimate D2E/DX2                !
 ! A57   A(25,24,31)           119.7138         estimate D2E/DX2                !
 ! A58   A(21,25,24)           117.3838         estimate D2E/DX2                !
 ! A59   A(21,25,57)           118.5845         estimate D2E/DX2                !
 ! A60   A(24,25,57)           124.0314         estimate D2E/DX2                !
 ! A61   A(36,32,37)           120.2402         estimate D2E/DX2                !
 ! A62   A(36,32,46)           122.8464         estimate D2E/DX2                !
 ! A63   A(37,32,46)           116.9128         estimate D2E/DX2                !
 ! A64   A(34,33,42)           120.916          estimate D2E/DX2                !
 ! A65   A(34,33,46)           122.3526         estimate D2E/DX2                !
 ! A66   A(42,33,46)           116.7311         estimate D2E/DX2                !
 ! A67   A(33,34,35)           119.879          estimate D2E/DX2                !
 ! A68   A(33,34,65)           118.9313         estimate D2E/DX2                !
 ! A69   A(35,34,65)           121.1897         estimate D2E/DX2                !
 ! A70   A(34,35,36)           119.1428         estimate D2E/DX2                !
 ! A71   A(34,35,43)           121.1407         estimate D2E/DX2                !
 ! A72   A(36,35,43)           119.7165         estimate D2E/DX2                !
 ! A73   A(32,36,35)           117.3566         estimate D2E/DX2                !
 ! A74   A(32,36,53)           118.5555         estimate D2E/DX2                !
 ! A75   A(35,36,53)           124.0879         estimate D2E/DX2                !
 ! A76   A(32,37,41)           120.2319         estimate D2E/DX2                !
 ! A77   A(32,37,51)           116.9303         estimate D2E/DX2                !
 ! A78   A(41,37,51)           122.8369         estimate D2E/DX2                !
 ! A79   A(39,38,44)           120.919          estimate D2E/DX2                !
 ! A80   A(39,38,51)           122.3333         estimate D2E/DX2                !
 ! A81   A(44,38,51)           116.747          estimate D2E/DX2                !
 ! A82   A(38,39,40)           119.8778         estimate D2E/DX2                !
 ! A83   A(38,39,66)           118.9317         estimate D2E/DX2                !
 ! A84   A(40,39,66)           121.1905         estimate D2E/DX2                !
 ! A85   A(39,40,41)           119.1541         estimate D2E/DX2                !
 ! A86   A(39,40,45)           121.1293         estimate D2E/DX2                !
 ! A87   A(41,40,45)           119.7166         estimate D2E/DX2                !
 ! A88   A(37,41,40)           117.3523         estimate D2E/DX2                !
 ! A89   A(37,41,54)           118.5603         estimate D2E/DX2                !
 ! A90   A(40,41,54)           124.0874         estimate D2E/DX2                !
 ! A91   A(32,46,33)           118.4223         estimate D2E/DX2                !
 ! A92   A(32,46,52)           113.4235         estimate D2E/DX2                !
 ! A93   A(33,46,52)           128.1535         estimate D2E/DX2                !
 ! A94   A(6,47,7)             118.3577         estimate D2E/DX2                !
 ! A95   A(6,47,52)            113.1364         estimate D2E/DX2                !
 ! A96   A(7,47,52)            128.5058         estimate D2E/DX2                !
 ! A97   A(21,48,22)           118.4235         estimate D2E/DX2                !
 ! A98   A(21,48,52)           113.3013         estimate D2E/DX2                !
 ! A99   A(22,48,52)           128.2703         estimate D2E/DX2                !
 ! A100  A(1,49,2)             118.7907         estimate D2E/DX2                !
 ! A101  A(1,49,52)            113.2914         estimate D2E/DX2                !
 ! A102  A(2,49,52)            127.9137         estimate D2E/DX2                !
 ! A103  A(16,50,17)           118.4442         estimate D2E/DX2                !
 ! A104  A(16,50,52)           113.3929         estimate D2E/DX2                !
 ! A105  A(17,50,52)           128.134          estimate D2E/DX2                !
 ! A106  A(37,51,38)           118.4448         estimate D2E/DX2                !
 ! A107  A(37,51,52)           113.423          estimate D2E/DX2                !
 ! A108  A(38,51,52)           128.1319         estimate D2E/DX2                !
 ! A109  A(46,52,47)            95.8231         estimate D2E/DX2                !
 ! A110  A(46,52,48)            95.8949         estimate D2E/DX2                !
 ! A111  A(46,52,50)            90.6224         estimate D2E/DX2                !
 ! A112  A(46,52,51)            79.3087         estimate D2E/DX2                !
 ! A113  A(47,52,48)            95.7062         estimate D2E/DX2                !
 ! A114  A(47,52,49)            79.3619         estimate D2E/DX2                !
 ! A115  A(47,52,51)            89.884          estimate D2E/DX2                !
 ! A116  A(48,52,49)            89.3289         estimate D2E/DX2                !
 ! A117  A(48,52,50)            79.3428         estimate D2E/DX2                !
 ! A118  A(49,52,50)            94.5521         estimate D2E/DX2                !
 ! A119  A(49,52,51)            95.8541         estimate D2E/DX2                !
 ! A120  A(50,52,51)            95.5184         estimate D2E/DX2                !
 ! A121  A(36,53,54)           121.2041         estimate D2E/DX2                !
 ! A122  A(36,53,60)           118.199          estimate D2E/DX2                !
 ! A123  A(54,53,60)           120.5969         estimate D2E/DX2                !
 ! A124  A(41,54,53)           121.2068         estimate D2E/DX2                !
 ! A125  A(41,54,59)           118.2045         estimate D2E/DX2                !
 ! A126  A(53,54,59)           120.5887         estimate D2E/DX2                !
 ! A127  A(10,55,56)           121.3358         estimate D2E/DX2                !
 ! A128  A(10,55,62)           118.1428         estimate D2E/DX2                !
 ! A129  A(56,55,62)           120.5213         estimate D2E/DX2                !
 ! A130  A(5,56,55)            121.1901         estimate D2E/DX2                !
 ! A131  A(5,56,61)            118.2432         estimate D2E/DX2                !
 ! A132  A(55,56,61)           120.5666         estimate D2E/DX2                !
 ! A133  A(25,57,58)           121.2014         estimate D2E/DX2                !
 ! A134  A(25,57,64)           118.2081         estimate D2E/DX2                !
 ! A135  A(58,57,64)           120.5902         estimate D2E/DX2                !
 ! A136  A(20,58,57)           121.1903         estimate D2E/DX2                !
 ! A137  A(20,58,63)           118.1997         estimate D2E/DX2                !
 ! A138  A(57,58,63)           120.61           estimate D2E/DX2                !
 ! A139  A(3,67,68)            121.8068         estimate D2E/DX2                !
 ! A140  A(3,67,71)            117.5828         estimate D2E/DX2                !
 ! A141  A(68,67,71)           120.6102         estimate D2E/DX2                !
 ! A142  A(67,68,69)           123.3102         estimate D2E/DX2                !
 ! A143  A(67,68,70)           120.4627         estimate D2E/DX2                !
 ! A144  A(69,68,70)           116.2271         estimate D2E/DX2                !
 ! A145  A(67,71,72)           111.857          estimate D2E/DX2                !
 ! A146  A(67,71,73)           111.9398         estimate D2E/DX2                !
 ! A147  A(67,71,74)           111.1144         estimate D2E/DX2                !
 ! A148  A(72,71,73)           106.2666         estimate D2E/DX2                !
 ! A149  A(72,71,74)           107.6965         estimate D2E/DX2                !
 ! A150  A(73,71,74)           107.7042         estimate D2E/DX2                !
 ! A151  L(46,52,49,47,-1)     175.1851         estimate D2E/DX2                !
 ! A152  L(47,52,50,46,-1)     186.4456         estimate D2E/DX2                !
 ! A153  L(48,52,51,46,-1)     175.2036         estimate D2E/DX2                !
 ! A154  L(46,52,49,47,-2)     184.7807         estimate D2E/DX2                !
 ! A155  L(47,52,50,46,-2)     184.2766         estimate D2E/DX2                !
 ! A156  L(48,52,51,46,-2)     185.1513         estimate D2E/DX2                !
 ! D1    D(6,1,5,4)            179.8108         estimate D2E/DX2                !
 ! D2    D(6,1,5,56)             0.0175         estimate D2E/DX2                !
 ! D3    D(49,1,5,4)            -0.3375         estimate D2E/DX2                !
 ! D4    D(49,1,5,56)          179.8691         estimate D2E/DX2                !
 ! D5    D(5,1,6,10)            -0.2936         estimate D2E/DX2                !
 ! D6    D(5,1,6,47)          -179.8043         estimate D2E/DX2                !
 ! D7    D(49,1,6,10)          179.8477         estimate D2E/DX2                !
 ! D8    D(49,1,6,47)            0.337          estimate D2E/DX2                !
 ! D9    D(5,1,49,2)             0.5485         estimate D2E/DX2                !
 ! D10   D(5,1,49,52)          179.8638         estimate D2E/DX2                !
 ! D11   D(6,1,49,2)          -179.595          estimate D2E/DX2                !
 ! D12   D(6,1,49,52)           -0.2798         estimate D2E/DX2                !
 ! D13   D(11,2,3,4)           179.6141         estimate D2E/DX2                !
 ! D14   D(11,2,3,67)           -0.5718         estimate D2E/DX2                !
 ! D15   D(49,2,3,4)            -0.162          estimate D2E/DX2                !
 ! D16   D(49,2,3,67)          179.6522         estimate D2E/DX2                !
 ! D17   D(3,2,49,1)            -0.2932         estimate D2E/DX2                !
 ! D18   D(3,2,49,52)         -179.496          estimate D2E/DX2                !
 ! D19   D(11,2,49,1)          179.9211         estimate D2E/DX2                !
 ! D20   D(11,2,49,52)           0.7182         estimate D2E/DX2                !
 ! D21   D(2,3,4,5)              0.3707         estimate D2E/DX2                !
 ! D22   D(2,3,4,12)          -179.7946         estimate D2E/DX2                !
 ! D23   D(67,3,4,5)          -179.435          estimate D2E/DX2                !
 ! D24   D(67,3,4,12)            0.3997         estimate D2E/DX2                !
 ! D25   D(2,3,67,68)          179.9966         estimate D2E/DX2                !
 ! D26   D(2,3,67,71)           -0.1716         estimate D2E/DX2                !
 ! D27   D(4,3,67,68)           -0.2019         estimate D2E/DX2                !
 ! D28   D(4,3,67,71)          179.63           estimate D2E/DX2                !
 ! D29   D(3,4,5,1)             -0.1356         estimate D2E/DX2                !
 ! D30   D(3,4,5,56)           179.6449         estimate D2E/DX2                !
 ! D31   D(12,4,5,1)          -179.9748         estimate D2E/DX2                !
 ! D32   D(12,4,5,56)           -0.1944         estimate D2E/DX2                !
 ! D33   D(1,5,56,55)            0.1682         estimate D2E/DX2                !
 ! D34   D(1,5,56,61)         -179.9548         estimate D2E/DX2                !
 ! D35   D(4,5,56,55)         -179.6112         estimate D2E/DX2                !
 ! D36   D(4,5,56,61)            0.2658         estimate D2E/DX2                !
 ! D37   D(1,6,10,9)          -179.5132         estimate D2E/DX2                !
 ! D38   D(1,6,10,55)            0.3804         estimate D2E/DX2                !
 ! D39   D(47,6,10,9)           -0.0327         estimate D2E/DX2                !
 ! D40   D(47,6,10,55)         179.8609         estimate D2E/DX2                !
 ! D41   D(1,6,47,7)           179.7185         estimate D2E/DX2                !
 ! D42   D(1,6,47,52)           -0.2157         estimate D2E/DX2                !
 ! D43   D(10,6,47,7)            0.223          estimate D2E/DX2                !
 ! D44   D(10,6,47,52)        -179.7112         estimate D2E/DX2                !
 ! D45   D(13,7,8,9)           179.8371         estimate D2E/DX2                !
 ! D46   D(13,7,8,14)           -0.1661         estimate D2E/DX2                !
 ! D47   D(47,7,8,9)             0.1534         estimate D2E/DX2                !
 ! D48   D(47,7,8,14)         -179.8498         estimate D2E/DX2                !
 ! D49   D(8,7,47,6)            -0.2827         estimate D2E/DX2                !
 ! D50   D(8,7,47,52)          179.64           estimate D2E/DX2                !
 ! D51   D(13,7,47,6)         -179.9788         estimate D2E/DX2                !
 ! D52   D(13,7,47,52)          -0.0561         estimate D2E/DX2                !
 ! D53   D(7,8,9,10)             0.0456         estimate D2E/DX2                !
 ! D54   D(7,8,9,15)          -179.9607         estimate D2E/DX2                !
 ! D55   D(14,8,9,10)         -179.9512         estimate D2E/DX2                !
 ! D56   D(14,8,9,15)            0.0425         estimate D2E/DX2                !
 ! D57   D(8,9,10,6)            -0.1002         estimate D2E/DX2                !
 ! D58   D(8,9,10,55)         -179.9872         estimate D2E/DX2                !
 ! D59   D(15,9,10,6)          179.906          estimate D2E/DX2                !
 ! D60   D(15,9,10,55)           0.0191         estimate D2E/DX2                !
 ! D61   D(6,10,55,56)          -0.1995         estimate D2E/DX2                !
 ! D62   D(6,10,55,62)         179.8876         estimate D2E/DX2                !
 ! D63   D(9,10,55,56)         179.6863         estimate D2E/DX2                !
 ! D64   D(9,10,55,62)          -0.2267         estimate D2E/DX2                !
 ! D65   D(21,16,20,19)       -179.1222         estimate D2E/DX2                !
 ! D66   D(21,16,20,58)          0.7429         estimate D2E/DX2                !
 ! D67   D(50,16,20,19)          0.2483         estimate D2E/DX2                !
 ! D68   D(50,16,20,58)       -179.8866         estimate D2E/DX2                !
 ! D69   D(20,16,21,25)         -0.9468         estimate D2E/DX2                !
 ! D70   D(20,16,21,48)        179.1446         estimate D2E/DX2                !
 ! D71   D(50,16,21,25)        179.6469         estimate D2E/DX2                !
 ! D72   D(50,16,21,48)         -0.2618         estimate D2E/DX2                !
 ! D73   D(20,16,50,17)          0.0828         estimate D2E/DX2                !
 ! D74   D(20,16,50,52)       -178.1214         estimate D2E/DX2                !
 ! D75   D(21,16,50,17)        179.4725         estimate D2E/DX2                !
 ! D76   D(21,16,50,52)          1.2683         estimate D2E/DX2                !
 ! D77   D(26,17,18,19)        179.9593         estimate D2E/DX2                !
 ! D78   D(26,17,18,27)         -0.1376         estimate D2E/DX2                !
 ! D79   D(50,17,18,19)          0.3454         estimate D2E/DX2                !
 ! D80   D(50,17,18,27)       -179.7514         estimate D2E/DX2                !
 ! D81   D(18,17,50,16)         -0.3842         estimate D2E/DX2                !
 ! D82   D(18,17,50,52)        177.5202         estimate D2E/DX2                !
 ! D83   D(26,17,50,16)        179.9868         estimate D2E/DX2                !
 ! D84   D(26,17,50,52)         -2.1088         estimate D2E/DX2                !
 ! D85   D(17,18,19,20)          0.0061         estimate D2E/DX2                !
 ! D86   D(17,18,19,28)        179.9358         estimate D2E/DX2                !
 ! D87   D(27,18,19,20)       -179.8947         estimate D2E/DX2                !
 ! D88   D(27,18,19,28)          0.035          estimate D2E/DX2                !
 ! D89   D(18,19,20,16)         -0.2824         estimate D2E/DX2                !
 ! D90   D(18,19,20,58)        179.8606         estimate D2E/DX2                !
 ! D91   D(28,19,20,16)        179.7869         estimate D2E/DX2                !
 ! D92   D(28,19,20,58)         -0.0702         estimate D2E/DX2                !
 ! D93   D(16,20,58,57)         -0.1113         estimate D2E/DX2                !
 ! D94   D(16,20,58,63)        179.8389         estimate D2E/DX2                !
 ! D95   D(19,20,58,57)        179.7441         estimate D2E/DX2                !
 ! D96   D(19,20,58,63)         -0.3056         estimate D2E/DX2                !
 ! D97   D(16,21,25,24)       -179.6675         estimate D2E/DX2                !
 ! D98   D(16,21,25,57)          0.506          estimate D2E/DX2                !
 ! D99   D(48,21,25,24)          0.2356         estimate D2E/DX2                !
 ! D100  D(48,21,25,57)       -179.5909         estimate D2E/DX2                !
 ! D101  D(16,21,48,22)        179.8568         estimate D2E/DX2                !
 ! D102  D(16,21,48,52)         -0.8803         estimate D2E/DX2                !
 ! D103  D(25,21,48,22)         -0.0492         estimate D2E/DX2                !
 ! D104  D(25,21,48,52)        179.2137         estimate D2E/DX2                !
 ! D105  D(29,22,23,24)       -179.9235         estimate D2E/DX2                !
 ! D106  D(29,22,23,30)         -0.1266         estimate D2E/DX2                !
 ! D107  D(48,22,23,24)          0.323          estimate D2E/DX2                !
 ! D108  D(48,22,23,30)       -179.8801         estimate D2E/DX2                !
 ! D109  D(23,22,48,21)         -0.2341         estimate D2E/DX2                !
 ! D110  D(23,22,48,52)       -179.3719         estimate D2E/DX2                !
 ! D111  D(29,22,48,21)       -179.9971         estimate D2E/DX2                !
 ! D112  D(29,22,48,52)          0.8652         estimate D2E/DX2                !
 ! D113  D(22,23,24,25)         -0.1199         estimate D2E/DX2                !
 ! D114  D(22,23,24,31)        179.8069         estimate D2E/DX2                !
 ! D115  D(30,23,24,25)       -179.9121         estimate D2E/DX2                !
 ! D116  D(30,23,24,31)          0.0148         estimate D2E/DX2                !
 ! D117  D(23,24,25,21)         -0.1421         estimate D2E/DX2                !
 ! D118  D(23,24,25,57)        179.674          estimate D2E/DX2                !
 ! D119  D(31,24,25,21)        179.9299         estimate D2E/DX2                !
 ! D120  D(31,24,25,57)         -0.2539         estimate D2E/DX2                !
 ! D121  D(21,25,57,58)          0.1279         estimate D2E/DX2                !
 ! D122  D(21,25,57,64)        179.9217         estimate D2E/DX2                !
 ! D123  D(24,25,57,58)       -179.6862         estimate D2E/DX2                !
 ! D124  D(24,25,57,64)          0.1076         estimate D2E/DX2                !
 ! D125  D(37,32,36,35)       -179.7132         estimate D2E/DX2                !
 ! D126  D(37,32,36,53)          0.2884         estimate D2E/DX2                !
 ! D127  D(46,32,36,35)          0.004          estimate D2E/DX2                !
 ! D128  D(46,32,36,53)       -179.9945         estimate D2E/DX2                !
 ! D129  D(36,32,37,41)         -0.4131         estimate D2E/DX2                !
 ! D130  D(36,32,37,51)        179.9157         estimate D2E/DX2                !
 ! D131  D(46,32,37,41)        179.8533         estimate D2E/DX2                !
 ! D132  D(46,32,37,51)          0.1822         estimate D2E/DX2                !
 ! D133  D(36,32,46,33)          0.1349         estimate D2E/DX2                !
 ! D134  D(36,32,46,52)        179.8738         estimate D2E/DX2                !
 ! D135  D(37,32,46,33)        179.8609         estimate D2E/DX2                !
 ! D136  D(37,32,46,52)         -0.4002         estimate D2E/DX2                !
 ! D137  D(42,33,34,35)        179.9403         estimate D2E/DX2                !
 ! D138  D(42,33,34,65)         -0.1243         estimate D2E/DX2                !
 ! D139  D(46,33,34,35)          0.1628         estimate D2E/DX2                !
 ! D140  D(46,33,34,65)       -179.9017         estimate D2E/DX2                !
 ! D141  D(34,33,46,32)         -0.2184         estimate D2E/DX2                !
 ! D142  D(34,33,46,52)       -179.9137         estimate D2E/DX2                !
 ! D143  D(42,33,46,32)        179.9954         estimate D2E/DX2                !
 ! D144  D(42,33,46,52)          0.3001         estimate D2E/DX2                !
 ! D145  D(33,34,35,36)         -0.0157         estimate D2E/DX2                !
 ! D146  D(33,34,35,43)        179.9543         estimate D2E/DX2                !
 ! D147  D(65,34,35,36)       -179.9497         estimate D2E/DX2                !
 ! D148  D(65,34,35,43)          0.0203         estimate D2E/DX2                !
 ! D149  D(34,35,36,32)         -0.0617         estimate D2E/DX2                !
 ! D150  D(34,35,36,53)        179.9367         estimate D2E/DX2                !
 ! D151  D(43,35,36,32)        179.9679         estimate D2E/DX2                !
 ! D152  D(43,35,36,53)         -0.0337         estimate D2E/DX2                !
 ! D153  D(32,36,53,54)         -0.0232         estimate D2E/DX2                !
 ! D154  D(32,36,53,60)        179.9432         estimate D2E/DX2                !
 ! D155  D(35,36,53,54)        179.9785         estimate D2E/DX2                !
 ! D156  D(35,36,53,60)         -0.0552         estimate D2E/DX2                !
 ! D157  D(32,37,41,40)       -179.7141         estimate D2E/DX2                !
 ! D158  D(32,37,41,54)          0.2663         estimate D2E/DX2                !
 ! D159  D(51,37,41,40)         -0.063          estimate D2E/DX2                !
 ! D160  D(51,37,41,54)        179.9174         estimate D2E/DX2                !
 ! D161  D(32,37,51,38)        179.9465         estimate D2E/DX2                !
 ! D162  D(32,37,51,52)          0.1315         estimate D2E/DX2                !
 ! D163  D(41,37,51,38)          0.2846         estimate D2E/DX2                !
 ! D164  D(41,37,51,52)       -179.5304         estimate D2E/DX2                !
 ! D165  D(44,38,39,40)        179.8527         estimate D2E/DX2                !
 ! D166  D(44,38,39,66)         -0.1854         estimate D2E/DX2                !
 ! D167  D(51,38,39,40)          0.1782         estimate D2E/DX2                !
 ! D168  D(51,38,39,66)       -179.8599         estimate D2E/DX2                !
 ! D169  D(39,38,51,37)         -0.3412         estimate D2E/DX2                !
 ! D170  D(39,38,51,52)        179.443          estimate D2E/DX2                !
 ! D171  D(44,38,51,37)        179.9715         estimate D2E/DX2                !
 ! D172  D(44,38,51,52)         -0.2444         estimate D2E/DX2                !
 ! D173  D(38,39,40,41)          0.0531         estimate D2E/DX2                !
 ! D174  D(38,39,40,45)       -179.9779         estimate D2E/DX2                !
 ! D175  D(66,39,40,41)       -179.9079         estimate D2E/DX2                !
 ! D176  D(66,39,40,45)          0.0611         estimate D2E/DX2                !
 ! D177  D(39,40,41,37)         -0.1048         estimate D2E/DX2                !
 ! D178  D(39,40,41,54)        179.916          estimate D2E/DX2                !
 ! D179  D(45,40,41,37)        179.9257         estimate D2E/DX2                !
 ! D180  D(45,40,41,54)         -0.0535         estimate D2E/DX2                !
 ! D181  D(37,41,54,53)         -0.0008         estimate D2E/DX2                !
 ! D182  D(37,41,54,59)        179.9583         estimate D2E/DX2                !
 ! D183  D(40,41,54,53)        179.9781         estimate D2E/DX2                !
 ! D184  D(40,41,54,59)         -0.0628         estimate D2E/DX2                !
 ! D185  D(32,46,52,47)         89.1334         estimate D2E/DX2                !
 ! D186  D(32,46,52,48)       -174.4934         estimate D2E/DX2                !
 ! D187  D(32,46,52,50)        -95.1432         estimate D2E/DX2                !
 ! D188  D(32,46,52,51)          0.3553         estimate D2E/DX2                !
 ! D189  D(33,46,52,47)        -91.1586         estimate D2E/DX2                !
 ! D190  D(33,46,52,48)          5.2146         estimate D2E/DX2                !
 ! D191  D(33,46,52,50)         84.5648         estimate D2E/DX2                !
 ! D192  D(33,46,52,51)       -179.9367         estimate D2E/DX2                !
 ! D193  D(6,47,52,46)        -175.1686         estimate D2E/DX2                !
 ! D194  D(6,47,52,48)          88.2888         estimate D2E/DX2                !
 ! D195  D(6,47,52,49)           0.0507         estimate D2E/DX2                !
 ! D196  D(6,47,52,51)         -95.9281         estimate D2E/DX2                !
 ! D197  D(7,47,52,46)           4.9053         estimate D2E/DX2                !
 ! D198  D(7,47,52,48)         -91.6372         estimate D2E/DX2                !
 ! D199  D(7,47,52,49)        -179.8753         estimate D2E/DX2                !
 ! D200  D(7,47,52,51)          84.1459         estimate D2E/DX2                !
 ! D201  D(21,48,52,46)         90.6989         estimate D2E/DX2                !
 ! D202  D(21,48,52,47)       -172.823          estimate D2E/DX2                !
 ! D203  D(21,48,52,49)        -93.5837         estimate D2E/DX2                !
 ! D204  D(21,48,52,50)          1.1755         estimate D2E/DX2                !
 ! D205  D(22,48,52,46)        -90.1267         estimate D2E/DX2                !
 ! D206  D(22,48,52,47)          6.3513         estimate D2E/DX2                !
 ! D207  D(22,48,52,49)         85.5906         estimate D2E/DX2                !
 ! D208  D(22,48,52,50)       -179.6502         estimate D2E/DX2                !
 ! D209  D(1,49,52,47)           0.1237         estimate D2E/DX2                !
 ! D210  D(1,49,52,48)         -95.8098         estimate D2E/DX2                !
 ! D211  D(1,49,52,50)        -175.0633         estimate D2E/DX2                !
 ! D212  D(1,49,52,51)          88.9015         estimate D2E/DX2                !
 ! D213  D(2,49,52,47)         179.3631         estimate D2E/DX2                !
 ! D214  D(2,49,52,48)          83.4296         estimate D2E/DX2                !
 ! D215  D(2,49,52,50)           4.176          estimate D2E/DX2                !
 ! D216  D(2,49,52,51)         -91.8591         estimate D2E/DX2                !
 ! D217  D(16,50,52,46)        -97.1936         estimate D2E/DX2                !
 ! D218  D(16,50,52,48)         -1.3122         estimate D2E/DX2                !
 ! D219  D(16,50,52,49)         87.1441         estimate D2E/DX2                !
 ! D220  D(16,50,52,51)       -176.5125         estimate D2E/DX2                !
 ! D221  D(17,50,52,46)         84.814          estimate D2E/DX2                !
 ! D222  D(17,50,52,48)       -179.3047         estimate D2E/DX2                !
 ! D223  D(17,50,52,49)        -90.8483         estimate D2E/DX2                !
 ! D224  D(17,50,52,51)          5.4951         estimate D2E/DX2                !
 ! D225  D(37,51,52,46)         -0.2605         estimate D2E/DX2                !
 ! D226  D(37,51,52,47)        -96.2089         estimate D2E/DX2                !
 ! D227  D(37,51,52,49)       -175.5023         estimate D2E/DX2                !
 ! D228  D(37,51,52,50)         89.3308         estimate D2E/DX2                !
 ! D229  D(38,51,52,46)        179.9463         estimate D2E/DX2                !
 ! D230  D(38,51,52,47)         83.9979         estimate D2E/DX2                !
 ! D231  D(38,51,52,49)          4.7046         estimate D2E/DX2                !
 ! D232  D(38,51,52,50)        -90.4624         estimate D2E/DX2                !
 ! D233  D(36,53,54,41)         -0.1214         estimate D2E/DX2                !
 ! D234  D(36,53,54,59)        179.9205         estimate D2E/DX2                !
 ! D235  D(60,53,54,41)        179.9131         estimate D2E/DX2                !
 ! D236  D(60,53,54,59)         -0.045          estimate D2E/DX2                !
 ! D237  D(10,55,56,5)          -0.0769         estimate D2E/DX2                !
 ! D238  D(10,55,56,61)       -179.951          estimate D2E/DX2                !
 ! D239  D(62,55,56,5)         179.834          estimate D2E/DX2                !
 ! D240  D(62,55,56,61)         -0.0401         estimate D2E/DX2                !
 ! D241  D(25,57,58,20)         -0.3268         estimate D2E/DX2                !
 ! D242  D(25,57,58,63)        179.7241         estimate D2E/DX2                !
 ! D243  D(64,57,58,20)        179.8843         estimate D2E/DX2                !
 ! D244  D(64,57,58,63)         -0.0648         estimate D2E/DX2                !
 ! D245  D(3,67,68,69)          -0.072          estimate D2E/DX2                !
 ! D246  D(3,67,68,70)         179.8961         estimate D2E/DX2                !
 ! D247  D(71,67,68,69)       -179.8988         estimate D2E/DX2                !
 ! D248  D(71,67,68,70)          0.0693         estimate D2E/DX2                !
 ! D249  D(3,67,71,72)         -59.2209         estimate D2E/DX2                !
 ! D250  D(3,67,71,73)          59.9188         estimate D2E/DX2                !
 ! D251  D(3,67,71,74)        -179.6178         estimate D2E/DX2                !
 ! D252  D(68,67,71,72)        120.6131         estimate D2E/DX2                !
 ! D253  D(68,67,71,73)       -120.2472         estimate D2E/DX2                !
 ! D254  D(68,67,71,74)          0.2162         estimate D2E/DX2                !
 --------------------------------------------------------------------------------
 Trust Radius=3.00D-01 FncErr=5.00D-06 GrdErr=5.00D-06 EigMax=2.50D+02 EigMin=1.00D-04
 Number of steps in this run=    444 maximum allowed number of steps=    444.
 GradGradGradGradGradGradGradGradGradGradGradGradGradGradGradGradGradGrad

 Leave Link  103 at Tue Dec 19 13:12:28 2023, MaxMem=  2831155200 cpu:               0.0 elap:               0.0
 (Enter /opt/software/packages/g16/l202.exe)
 Symmetry turned off by external request.
 Stoichiometry    C39H28N6Ru
                          Input orientation:                          
 ---------------------------------------------------------------------
 Center     Atomic      Atomic             Coordinates (Angstroms)
 Number     Number       Type             X           Y           Z
 ---------------------------------------------------------------------
      1          6           0       -1.677626   -2.069176    0.266633
      2          6           0       -2.419769   -0.355066   -1.105256
      3          6           0       -3.640549   -1.012977   -1.381460
      4          6           0       -3.839775   -2.260124   -0.786036
      5          6           0       -2.860175   -2.814143    0.053489
      6          6           0       -0.646035   -2.570415    1.109318
      7          6           0        1.443085   -2.228641    2.054496
      8          6           0        1.371071   -3.456109    2.725946
      9          6           0        0.253770   -4.258001    2.578799
     10          6           0       -0.798992   -3.822554    1.749141
     11          1           0       -2.203488    0.619176   -1.546295
     12          1           0       -4.756700   -2.826856   -0.956939
     13          1           0        2.316644   -1.580921    2.160927
     14          1           0        2.205199   -3.760671    3.358816
     15          1           0        0.176407   -5.218044    3.093266
     16          6           0       -0.673397    2.708379   -0.053120
     17          6           0        0.283641    2.101992   -2.076786
     18          6           0       -0.069623    3.332639   -2.645934
     19          6           0       -0.741502    4.273743   -1.888636
     20          6           0       -1.060921    3.975526   -0.547953
     21          6           0       -0.982297    2.336841    1.287478
     22          6           0       -0.865132    0.715545    2.940848
     23          6           0       -1.528165    1.551699    3.849007
     24          6           0       -1.930013    2.814144    3.455189
     25          6           0       -1.660903    3.240647    2.138248
     26          1           0        0.814309    1.345646   -2.660046
     27          1           0        0.195655    3.528428   -3.685318
     28          1           0       -1.026088    5.239870   -2.310361
     29          1           0       -0.541386   -0.285907    3.234401
     30          1           0       -1.720094    1.187040    4.858640
     31          1           0       -2.450850    3.481789    4.144513
     32          6           0        3.234120    0.198806   -0.228624
     33          6           0        2.683395    1.396461    1.678915
     34          6           0        4.023519    1.754396    1.876215
     35          6           0        4.990435    1.318276    0.989849
     36          6           0        4.607165    0.515207   -0.104061
     37          6           0        2.779924   -0.613617   -1.307486
     38          6           0        0.983823   -1.635233   -2.360090
     39          6           0        1.824858   -2.157571   -3.351487
     40          6           0        3.181476   -1.895335   -3.311940
     41          6           0        3.697653   -1.102251   -2.266465
     42          1           0        1.905441    1.730943    2.369516
     43          1           0        6.040677    1.585497    1.123437
     44          1           0       -0.091334   -1.829823   -2.376150
     45          1           0        3.855462   -2.291680   -4.074079
     46          7           0        2.290718    0.635761    0.655284
     47          7           0        0.461039   -1.787666    1.265456
     48          7           0       -0.593132    1.092391    1.690096
     49          7           0       -1.471031   -0.857476   -0.316991
     50          7           0       -0.011020    1.788708   -0.813329
     51          7           0        1.442260   -0.878087   -1.361448
     52         44           0        0.360809   -0.000172    0.189299
     53          6           0        5.518020    0.007590   -1.084723
     54          6           0        5.081785   -0.766867   -2.122159
     55          6           0       -2.003172   -4.564310    1.519825
     56          6           0       -2.990080   -4.082970    0.707788
     57          6           0       -2.034923    4.520720    1.618674
     58          6           0       -1.750197    4.871946    0.329581
     59          1           0        5.785286   -1.147743   -2.865367
     60          1           0        6.576485    0.256192   -0.983469
     61          1           0       -3.903210   -4.658559    0.542437
     62          1           0       -2.114754   -5.531181    2.015033
     63          1           0       -2.044042    5.849546   -0.058202
     64          1           0       -2.559620    5.213047    2.280291
     65          1           0        4.282515    2.377413    2.732924
     66          1           0        1.390509   -2.767999   -4.143900
     67          6           0       -4.632213   -0.362190   -2.266577
     68          6           0       -5.809021   -0.944232   -2.562003
     69          1           0       -6.108345   -1.921004   -2.176633
     70          1           0       -6.525863   -0.443164   -3.216751
     71          6           0       -4.284348    0.981378   -2.827378
     72          1           0       -4.098737    1.721723   -2.033140
     73          1           0       -3.368346    0.947811   -3.438029
     74          1           0       -5.092647    1.366656   -3.459766
 ---------------------------------------------------------------------
 Rotational constants (GHZ):           0.0879366           0.0757827           0.0631247
 Leave Link  202 at Tue Dec 19 13:12:28 2023, MaxMem=  2831155200 cpu:               0.0 elap:               0.0
 (Enter /opt/software/packages/g16/l301.exe)
 Standard basis: def2SVP (5D, 7F)
 Ernie: Thresh=  0.10000D-02 Tol=  0.10000D-05 Strict=F.
   801 basis functions,  1386 primitive gaussians,   851 cartesian basis functions
   159 alpha electrons      159 beta electrons
       nuclear repulsion energy      6024.9055174481 Hartrees.
 IExCor= 3630 DFT=T Ex+Corr=B97D3 ExCW=0 ScaHFX=  0.000000
 ScaDFX=  1.000000  1.000000  1.000000  1.000000 ScalE2=  1.000000  1.000000
 IRadAn=      5 IRanWt=     -1 IRanGd=            0 ICorTp=0 IEmpDi=141
 NAtoms=   74 NActive=   74 NUniq=   74 SFac= 1.00D+00 NAtFMM=   60 NAOKFM=T Big=T
 Integral buffers will be    131072 words long.
 Raffenetti 2 integral format.
 Two-electron integral symmetry is turned off.
 R6Disp:  Grimme-D3(BJ) Dispersion energy=       -0.3364954648 Hartrees.
 Nuclear repulsion after empirical dispersion term =     6024.5690219833 Hartrees.
 ------------------------------------------------------------------------------
 Polarizable Continuum Model (PCM)
 =================================
 Model                : PCM.
 Atomic radii         : SMD-Coulomb.
 Polarization charges : Total charges.
 Charge compensation  : None.
 Solution method      : On-the-fly selection.
 Cavity type          : VdW (van der Waals Surface) (Alpha=1.000).
 Cavity algorithm     : GePol (No added spheres)
                        Default sphere list used, NSphG=   74.
                        Lebedev-Laikov grids with approx.  5.0 points / Ang**2.
                        Smoothing algorithm: York/Karplus (Gamma=1.0000).
                        Polarization charges: spherical gaussians, with
                                              point-specific exponents (IZeta= 3).
                        Self-potential: point-specific (ISelfS= 7).
                        Self-field    : sphere-specific E.n sum rule (ISelfD= 2).
 1st derivatives      : Analytical E(r).r(x)/FMM algorithm (CHGder, D1EAlg=3).
                        Cavity 1st derivative terms included.
 Solvent              : n,n-DiMethylFormamide, Eps=  37.219000 Eps(inf)=   2.046330
 ------------------------------------------------------------------------------
 GePol: Number of generator spheres                  =      74
 GePol: Total number of spheres                      =      74
 GePol: Number of exposed spheres                    =      73 ( 98.65%)
 GePol: Number of points                             =    5335
 GePol: Average weight of points                     =       0.11
 GePol: Minimum weight of points                     =   0.14D-10
 GePol: Maximum weight of points                     =    0.17992
 GePol: Number of points with low weight             =     347
 GePol: Fraction of low-weight points (<1% of avg)   =       6.50%
 GePol: Cavity surface area                          =    568.220 Ang**2
 GePol: Cavity volume                                =    595.661 Ang**3
 ------------------------------------------------------------------------------
 Atomic radii for non-electrostatic terms: SMD-CDS.
 ------------------------------------------------------------------------------
 PCM non-electrostatic energy =        -0.0098433751 Hartrees.
 Nuclear repulsion after PCM non-electrostatic terms =     6024.5591786082 Hartrees.
 Leave Link  301 at Tue Dec 19 13:12:28 2023, MaxMem=  2831155200 cpu:               0.1 elap:               0.1
 (Enter /opt/software/packages/g16/l302.exe)
 NPDir=0 NMtPBC=     1 NCelOv=     1 NCel=       1 NClECP=     1 NCelD=      1
         NCelK=      1 NCelE2=     1 NClLst=     1 CellRange=     0.0.
 One-electron integrals computed using PRISM.
   1 Symmetry operations used in ECPInt.
 ECPInt:  NShTT=   66795 NPrTT=  245334 LenC2=   56151 LenP2D=  131408.
 LDataN:  DoStor=T MaxTD1= 7 Len=  274
 NBasis=   801 RedAO= T EigKep=  1.49D-04  NBF=   801
 NBsUse=   801 1.00D-06 EigRej= -1.00D+00 NBFU=   801
 Precomputing XC quadrature grid using
 IXCGrd= 4 IRadAn=           5 IRanWt=          -1 IRanGd=           0 AccXCQ= 0.00D+00.
 Defaulting to unpruned grid for atomic number  44.
 Generated NRdTot=       0 NPtTot=           0 NUsed=           0 NTot=          32
 NSgBfM=   834   834   834   834   834 MxSgAt=    74 MxSgA2=    74.
 Leave Link  302 at Tue Dec 19 13:12:30 2023, MaxMem=  2831155200 cpu:              12.2 elap:               1.4
 (Enter /opt/software/packages/g16/l303.exe)
 DipDrv:  MaxL=1.
 Leave Link  303 at Tue Dec 19 13:12:30 2023, MaxMem=  2831155200 cpu:               0.2 elap:               0.1
 (Enter /opt/software/packages/g16/l401.exe)
 ExpMin= 3.92D-02 ExpMax= 1.71D+03 ExpMxC= 2.58D+02 IAcc=3 IRadAn=         5 AccDes= 0.00D+00
 Harris functional with IExCor= 3630 and IRadAn=       5 diagonalized for initial guess.
 HarFok:  IExCor= 3630 AccDes= 0.00D+00 IRadAn=         5 IDoV= 1 UseB2=F ITyADJ=14
 ICtDFT=  3500011 ScaDFX=  1.000000  1.000000  1.000000  1.000000
 Defaulting to unpruned grid for atomic number  44.
 FoFCou: FMM=F IPFlag=           0 FMFlag=      100000 FMFlg1=        2001
         NFxFlg=           0 DoJE=T BraDBF=F KetDBF=T FulRan=T
         wScrn=  0.000000 ICntrl=       500 IOpCl=  0 I1Cent=   200000004 NGrid=           0
         NMat0=    1 NMatS0=      1 NMatT0=    0 NMatD0=    1 NMtDS0=    0 NMtDT0=    0
 Symmetry not used in FoFCou.
 Harris En= -1924.33050677205    
 JPrj=0 DoOrth=F DoCkMO=F.
 Leave Link  401 at Tue Dec 19 13:12:35 2023, MaxMem=  2831155200 cpu:              81.2 elap:               5.6
 (Enter /opt/software/packages/g16/l502.exe)
 Two-electron integral symmetry not used.
 Closed shell SCF:
 Using DIIS extrapolation, IDIIS=  1040.
 NGot=  2831155200 LenX=  2829684469 LenY=  2828959417
 Requested convergence on RMS density matrix=1.00D-08 within 128 cycles.
 Requested convergence on MAX density matrix=1.00D-06.
 Requested convergence on             energy=1.00D-06.
 No special actions if energy rises.
 Fock matrices will be formed incrementally for  20 cycles.

 Cycle   1  Pass 1  IDiag  1:
 FoFJK:  IHMeth= 1 ICntrl=     500 DoSepK=F KAlg= 0 I1Cent=           0 FoldK=F
 IRaf= 970000000 NMat=       1 IRICut=       1 DoRegI=T DoRafI=F ISym2E= 0 IDoP0=0 IntGTp=1.
 FoFCou: FMM=T IPFlag=           0 FMFlag=      100000 FMFlg1=        2001
         NFxFlg=           0 DoJE=T BraDBF=F KetDBF=F FulRan=T
         wScrn=  0.000000 ICntrl=       500 IOpCl=  0 I1Cent=           0 NGrid=           0
         NMat0=    1 NMatS0=      1 NMatT0=    0 NMatD0=    1 NMtDS0=    0 NMtDT0=    0
 Symmetry not used in FoFCou.
 FMM levels:  10  Number of levels for PrismC:   9
 Defaulting to unpruned grid for atomic number  44.
 Defaulting to unpruned grid for atomic number  44.
 Defaulting to unpruned grid for atomic number  44.
 Defaulting to unpruned grid for atomic number  44.
 Defaulting to unpruned grid for atomic number  44.
 Defaulting to unpruned grid for atomic number  44.
 Defaulting to unpruned grid for atomic number  44.
 Defaulting to unpruned grid for atomic number  44.
 Defaulting to unpruned grid for atomic number  44.
 Defaulting to unpruned grid for atomic number  44.
 Defaulting to unpruned grid for atomic number  44.
 Defaulting to unpruned grid for atomic number  44.
 Defaulting to unpruned grid for atomic number  44.
 Defaulting to unpruned grid for atomic number  44.
 Defaulting to unpruned grid for atomic number  44.
 Defaulting to unpruned grid for atomic number  44.
 Inv3:  Mode=1 IEnd=    85386675.
 Iteration    1 A*A^-1 deviation from unit magnitude is 5.77D-15 for   5333.
 Iteration    1 A*A^-1 deviation from orthogonality  is 2.55D-15 for   5323   4569.
 Iteration    1 A^-1*A deviation from unit magnitude is 5.77D-15 for   5333.
 Iteration    1 A^-1*A deviation from orthogonality  is 2.89D-13 for   2855   2799.
 E= -1920.66048720074    
 DIIS: error= 6.71D-02 at cycle   1 NSaved=   1.
 NSaved= 1 IEnMin= 1 EnMin= -1920.66048720074     IErMin= 1 ErrMin= 6.71D-02
 ErrMax= 6.71D-02  0.00D+00 EMaxC= 1.00D-01 BMatC= 3.31D+00 BMatP= 3.31D+00
 IDIUse=3 WtCom= 3.29D-01 WtEn= 6.71D-01
 Coeff-Com:  0.100D+01
 Coeff-En:   0.100D+01
 Coeff:      0.100D+01
 Gap=     0.304 Goal=   None    Shift=    0.000
 GapD=    0.304 DampG=1.000 DampE=0.250 DampFc=0.2500 IDamp=-1.
 Damping current iteration by 2.50D-01
 RMSDP=2.34D-02 MaxDP=4.87D+00              OVMax= 8.54D-01

 Cycle   2  Pass 1  IDiag  1:
 RMSU=  5.85D-03    CP:  1.00D+00
 E= -1921.64024678938     Delta-E=       -0.979759588638 Rises=F Damp=T
 DIIS: error= 1.72D-02 at cycle   2 NSaved=   2.
 NSaved= 2 IEnMin= 2 EnMin= -1921.64024678938     IErMin= 2 ErrMin= 1.72D-02
 ErrMax= 1.72D-02  0.00D+00 EMaxC= 1.00D-01 BMatC= 3.66D-01 BMatP= 3.31D+00
 IDIUse=3 WtCom= 8.28D-01 WtEn= 1.72D-01
 Coeff-Com:  0.167D-01 0.983D+00
 Coeff-En:   0.331D+00 0.669D+00
 Coeff:      0.709D-01 0.929D+00
 Gap=    -0.048 Goal=   None    Shift=    0.000
 RMSDP=6.32D-03 MaxDP=1.09D+00 DE=-9.80D-01 OVMax= 8.14D-01

 Cycle   3  Pass 1  IDiag  1:
 RMSU=  3.36D-03    CP:  9.45D-01  9.54D-02
 E= -1921.51780764509     Delta-E=        0.122439144296 Rises=F Damp=F
 DIIS: error= 7.03D-02 at cycle   3 NSaved=   3.
 NSaved= 3 IEnMin= 2 EnMin= -1921.64024678938     IErMin= 2 ErrMin= 1.72D-02
 ErrMax= 7.03D-02  0.00D+00 EMaxC= 1.00D-01 BMatC= 2.72D+00 BMatP= 3.66D-01
 IDIUse=2 WtCom= 0.00D+00 WtEn= 1.00D+00
 EnCoef did   100 forward-backward iterations
 Coeff-En:   0.432D+00 0.247D-01 0.543D+00
 Coeff:      0.432D+00 0.247D-01 0.543D+00
 Gap=     0.418 Goal=   None    Shift=    0.000
 RMSDP=4.98D-03 MaxDP=3.14D-01 DE= 1.22D-01 OVMax= 4.79D-01

 Cycle   4  Pass 1  IDiag  1:
 RMSU=  4.43D-03    CP:  9.51D-01  2.32D-01  3.65D-01
 E= -1912.82416530705     Delta-E=        8.693642338036 Rises=F Damp=F
 DIIS: error= 7.98D-02 at cycle   4 NSaved=   4.
 NSaved= 4 IEnMin= 2 EnMin= -1921.64024678938     IErMin= 2 ErrMin= 1.72D-02
 ErrMax= 7.98D-02  0.00D+00 EMaxC= 1.00D-01 BMatC= 8.46D+00 BMatP= 3.66D-01
 IDIUse=2 WtCom= 0.00D+00 WtEn= 1.00D+00
 EnCoef did   100 forward-backward iterations
 Coeff-En:   0.445D+00 0.634D-02 0.402D+00 0.146D+00
 Coeff:      0.445D+00 0.634D-02 0.402D+00 0.146D+00
 Gap=    -0.022 Goal=   None    Shift=    0.000
 RMSDP=3.42D-03 MaxDP=5.09D-01 DE= 8.69D+00 OVMax= 8.53D-01

 Cycle   5  Pass 1  IDiag  1:
 RMSU=  1.51D-03    CP:  9.51D-01  1.04D-01  5.29D-01  3.40D-01
 E= -1923.57168896928     Delta-E=      -10.747523662227 Rises=F Damp=F
 DIIS: error= 2.42D-02 at cycle   5 NSaved=   5.
 NSaved= 5 IEnMin= 5 EnMin= -1923.57168896928     IErMin= 2 ErrMin= 1.72D-02
 ErrMax= 2.42D-02  0.00D+00 EMaxC= 1.00D-01 BMatC= 5.55D-01 BMatP= 3.66D-01
 IDIUse=2 WtCom= 0.00D+00 WtEn= 1.00D+00
 EnCoef did     2 forward-backward iterations
 Coeff-En:   0.212D+00 0.000D+00 0.140D+00 0.000D+00 0.649D+00
 Coeff:      0.212D+00 0.000D+00 0.140D+00 0.000D+00 0.649D+00
 Gap=     0.106 Goal=   None    Shift=    0.000
 RMSDP=2.03D-03 MaxDP=1.13D-01 DE=-1.07D+01 OVMax= 3.64D-01

 Cycle   6  Pass 1  IDiag  1:
 RMSU=  8.78D-04    CP:  9.60D-01  3.07D-02  5.70D-01  1.92D-02  2.95D-01
 E= -1923.68634219374     Delta-E=       -0.114653224458 Rises=F Damp=F
 DIIS: error= 1.86D-02 at cycle   6 NSaved=   6.
 NSaved= 6 IEnMin= 6 EnMin= -1923.68634219374     IErMin= 2 ErrMin= 1.72D-02
 ErrMax= 1.86D-02  0.00D+00 EMaxC= 1.00D-01 BMatC= 4.80D-01 BMatP= 3.66D-01
 IDIUse=2 WtCom= 0.00D+00 WtEn= 1.00D+00
 Coeff-En:   0.000D+00 0.000D+00 0.000D+00 0.000D+00 0.467D+00 0.533D+00
 Coeff:      0.000D+00 0.000D+00 0.000D+00 0.000D+00 0.467D+00 0.533D+00
 Gap=     0.063 Goal=   None    Shift=    0.000
 RMSDP=9.94D-04 MaxDP=6.00D-02 DE=-1.15D-01 OVMax= 2.13D-01

 Cycle   7  Pass 1  IDiag  1:
 RMSU=  4.11D-04    CP:  9.59D-01  5.13D-02  5.31D-01  1.50D-01  6.40D-01
                    CP:  5.20D-01
 E= -1924.16486514285     Delta-E=       -0.478522949119 Rises=F Damp=F
 DIIS: error= 4.77D-03 at cycle   7 NSaved=   7.
 NSaved= 7 IEnMin= 7 EnMin= -1924.16486514285     IErMin= 7 ErrMin= 4.77D-03
 ErrMax= 4.77D-03  0.00D+00 EMaxC= 1.00D-01 BMatC= 2.48D-02 BMatP= 3.66D-01
 IDIUse=3 WtCom= 9.52D-01 WtEn= 4.77D-02
 Coeff-Com: -0.432D-01 0.425D-01-0.110D-02-0.589D-02 0.184D+00 0.279D+00
 Coeff-Com:  0.545D+00
 Coeff-En:   0.000D+00 0.000D+00 0.000D+00 0.000D+00 0.000D+00 0.000D+00
 Coeff-En:   0.100D+01
 Coeff:     -0.411D-01 0.404D-01-0.104D-02-0.561D-02 0.175D+00 0.266D+00
 Coeff:      0.567D+00
 Gap=     0.066 Goal=   None    Shift=    0.000
 RMSDP=2.73D-04 MaxDP=2.48D-02 DE=-4.79D-01 OVMax= 6.14D-02

 Cycle   8  Pass 1  IDiag  1:
 RMSU=  1.60D-04    CP:  9.57D-01  5.31D-02  5.59D-01  1.47D-01  6.24D-01
                    CP:  6.02D-01  5.57D-01
 E= -1924.18689774174     Delta-E=       -0.022032598883 Rises=F Damp=F
 DIIS: error= 1.31D-03 at cycle   8 NSaved=   8.
 NSaved= 8 IEnMin= 8 EnMin= -1924.18689774174     IErMin= 8 ErrMin= 1.31D-03
 ErrMax= 1.31D-03  0.00D+00 EMaxC= 1.00D-01 BMatC= 3.39D-03 BMatP= 2.48D-02
 IDIUse=3 WtCom= 9.87D-01 WtEn= 1.31D-02
 Coeff-Com: -0.152D-01 0.954D-02 0.666D-02-0.353D-02 0.552D-01 0.645D-01
 Coeff-Com:  0.325D+00 0.558D+00
 Coeff-En:   0.000D+00 0.000D+00 0.000D+00 0.000D+00 0.000D+00 0.000D+00
 Coeff-En:   0.129D+00 0.871D+00
 Coeff:     -0.150D-01 0.941D-02 0.657D-02-0.348D-02 0.545D-01 0.637D-01
 Coeff:      0.323D+00 0.562D+00
 Gap=     0.066 Goal=   None    Shift=    0.000
 RMSDP=1.07D-04 MaxDP=8.92D-03 DE=-2.20D-02 OVMax= 2.66D-02

 Cycle   9  Pass 1  IDiag  1:
 RMSU=  5.78D-05    CP:  9.57D-01  5.41D-02  5.57D-01  1.51D-01  6.38D-01
                    CP:  5.68D-01  6.39D-01  5.46D-01
 E= -1924.19024468297     Delta-E=       -0.003346941229 Rises=F Damp=F
 DIIS: error= 6.04D-04 at cycle   9 NSaved=   9.
 NSaved= 9 IEnMin= 9 EnMin= -1924.19024468297     IErMin= 9 ErrMin= 6.04D-04
 ErrMax= 6.04D-04  0.00D+00 EMaxC= 1.00D-01 BMatC= 4.78D-04 BMatP= 3.39D-03
 IDIUse=3 WtCom= 9.94D-01 WtEn= 6.04D-03
 Coeff-Com: -0.432D-02 0.301D-02 0.622D-02-0.194D-02 0.171D-01 0.836D-02
 Coeff-Com:  0.144D+00 0.360D+00 0.467D+00
 Coeff-En:   0.000D+00 0.000D+00 0.000D+00 0.000D+00 0.000D+00 0.000D+00
 Coeff-En:   0.000D+00 0.749D-01 0.925D+00
 Coeff:     -0.430D-02 0.299D-02 0.618D-02-0.193D-02 0.170D-01 0.831D-02
 Coeff:      0.143D+00 0.359D+00 0.470D+00
 Gap=     0.067 Goal=   None    Shift=    0.000
 RMSDP=3.98D-05 MaxDP=4.24D-03 DE=-3.35D-03 OVMax= 8.59D-03

 Cycle  10  Pass 1  IDiag  1:
 RMSU=  2.20D-05    CP:  9.57D-01  5.44D-02  5.58D-01  1.52D-01  6.40D-01
                    CP:  5.59D-01  6.37D-01  6.21D-01  4.97D-01
 E= -1924.19069032333     Delta-E=       -0.000445640359 Rises=F Damp=F
 DIIS: error= 1.73D-04 at cycle  10 NSaved=  10.
 NSaved=10 IEnMin=10 EnMin= -1924.19069032333     IErMin=10 ErrMin= 1.73D-04
 ErrMax= 1.73D-04  0.00D+00 EMaxC= 1.00D-01 BMatC= 8.00D-05 BMatP= 4.78D-04
 IDIUse=3 WtCom= 9.98D-01 WtEn= 1.73D-03
 Coeff-Com: -0.795D-03 0.753D-04 0.258D-02-0.692D-03 0.429D-02 0.150D-03
 Coeff-Com:  0.572D-01 0.166D+00 0.309D+00 0.463D+00
 Coeff-En:   0.000D+00 0.000D+00 0.000D+00 0.000D+00 0.000D+00 0.000D+00
[...]
      4  -0.143167D+00 -0.904648D-01 -0.213336D-01 -0.426437D-01  0.119321D-01
      5   0.259438D-02  0.716563D-02 -0.179288D-02 -0.299998D-02  0.436024D-02
      6  -0.506972D-03 -0.584670D-02 -0.158297D-02  0.777382D-02  0.459142D-02
      7   0.777320D-02  0.643402D-02  0.156394D-02  0.306986D-02 -0.949754D-03
      8  -0.186746D+00 -0.246040D+00  0.118106D+00 -0.103693D+00  0.258966D-01
      9  -0.849430D-01  0.112471D+00  0.247635D+00  0.396355D-01  0.128247D+00
     10  -0.749313D+00 -0.137528D+00 -0.838680D-01 -0.101622D-01 -0.108378D-01
     11   0.499463D-01  0.505795D-01 -0.893380D-02 -0.359750D-01  0.138825D-01
     12  -0.147231D-01 -0.406046D-01  0.242823D-02  0.539697D-01  0.150852D-01
     13   0.195877D-01 -0.197132D-01 -0.536400D-01  0.384786D-01  0.260406D-01
     14  -0.984326D-03  0.369312D-01  0.377919D-01 -0.196203D-01  0.662982D-02
     15   0.349858D-01 -0.638819D-02  0.410601D-01 -0.191163D-01 -0.145129D-01
     16   0.819776D-02  0.241880D-01 -0.460420D-01 -0.271705D-01  0.146124D-01
                 6             7             8             9            10 
      1  -0.192412D+04 -0.192412D+04 -0.192411D+04 -0.192411D+04 -0.192411D+04
      2  -0.750753D-01  0.699744D+00  0.554466D+00  0.209555D+00  0.981017D-02
      3  -0.103960D+00 -0.333884D+00  0.965659D+00 -0.139126D+00  0.386820D+00
      4   0.372718D-01 -0.194683D+00 -0.114163D+00 -0.284131D-02  0.249320D-01
      5   0.617385D-02 -0.568774D-01 -0.455978D-01 -0.184072D-01 -0.694841D-03
      6   0.871833D-02  0.274074D-01 -0.801445D-01  0.120822D-01 -0.336364D-01
      7  -0.279475D-02  0.161633D-01  0.981927D-02 -0.337984D-03 -0.212690D-02
      8   0.653791D-01  0.331781D+00  0.244134D+00  0.125826D+00  0.177816D-01
      9  -0.355057D-01 -0.218931D+00  0.346999D+00 -0.649745D-01  0.267625D-01
     10  -0.101580D-01 -0.162076D+00 -0.152320D+00  0.103800D+00 -0.530386D-01
     11   0.683780D-01 -0.275347D+00  0.752953D-01 -0.161571D+00  0.353125D-01
     12   0.386859D-01  0.205846D+00  0.911150D-01  0.102393D+00 -0.862880D-02
     13   0.713621D-01  0.470967D-01 -0.111349D+00  0.178552D-01 -0.247676D-01
     14  -0.139234D-01 -0.811025D-01  0.208789D+00 -0.599807D-01  0.122088D-01
     15   0.102261D-01  0.268015D-01  0.213795D+00 -0.280155D-01  0.235234D-01
     16   0.157626D-01 -0.116370D+00 -0.227775D+00 -0.477452D-01 -0.170926D-01
                11            12            13            14            15 
      1  -0.192411D+04 -0.192411D+04 -0.192411D+04 -0.192411D+04 -0.192411D+04
      2  -0.342794D+00 -0.907131D-01 -0.798557D+00  0.360044D-02 -0.611226D+00
      3   0.402623D-01  0.181506D+00 -0.812081D+00 -0.198657D+00 -0.886960D+00
      4   0.121376D+00  0.119397D+00  0.120114D+00  0.185102D+00 -0.149194D+00
      5   0.299990D-01  0.764342D-02  0.714509D-01 -0.320566D-02  0.555311D-01
      6  -0.351069D-02 -0.168055D-01  0.763456D-01  0.172056D-01  0.787152D-01
      7  -0.103263D-01 -0.981211D-02 -0.119410D-01 -0.138259D-01  0.104424D-01
      8   0.482853D-02 -0.630945D-01  0.215335D-01 -0.204251D+00  0.789060D-01
      9   0.235984D-01 -0.130577D+00  0.380148D+00 -0.157161D-01 -0.128276D-01
     10  -0.221829D-01  0.242531D-01  0.966148D-01  0.831894D-01  0.534331D-01
     11   0.384490D-01  0.856678D-01 -0.226298D+00 -0.255712D+00  0.282464D+00
     12  -0.161068D-01  0.140461D-01 -0.786171D-01  0.316292D+00 -0.207953D+00
     13   0.822690D-02 -0.852217D-01  0.206816D+00 -0.837573D-01 -0.939105D-01
     14  -0.223105D-01  0.129776D+00 -0.373090D+00 -0.272576D-01  0.868643D-01
     15  -0.785890D-02  0.921146D-01 -0.349094D+00  0.144880D+00  0.659880D-01
     16   0.211376D-01 -0.862068D-01  0.258703D+00 -0.381773D+00  0.157238D+00
                16            17            18            19            20 
      1  -0.192410D+04 -0.192410D+04 -0.192409D+04 -0.192409D+04 -0.192409D+04
      2   0.549480D+00  0.138488D+01  0.277014D+00  0.214633D+00  0.683985D-01
      3  -0.626708D+00 -0.808378D+00  0.233264D+00  0.304753D-01  0.792259D-03
      4   0.655328D+00 -0.791460D+00 -0.717303D-01  0.260688D+00  0.298779D+00
      5  -0.472493D-01 -0.130177D+00 -0.283239D-01 -0.205779D-01 -0.111030D-01
      6   0.576941D-01  0.757359D-01 -0.240097D-01 -0.406623D-02 -0.408466D-03
      7  -0.522803D-01  0.708396D-01  0.778598D-02 -0.263555D-01 -0.421605D-01
      8  -0.273047D-01 -0.149912D+00 -0.944856D-02  0.265903D+00 -0.110178D-01
      9   0.928202D-01 -0.162314D-01 -0.653245D-01 -0.151077D+00  0.319429D-01
     10  -0.237692D-01  0.128750D+00 -0.459285D-01 -0.154143D+00  0.376358D-01
     11  -0.213431D+00 -0.725248D+00 -0.316211D+00  0.367259D+00 -0.778728D-01
     12   0.735170D-01  0.501616D+00 -0.225636D+00 -0.284048D+00 -0.282478D-01
     13   0.561492D-02  0.103489D+00 -0.138402D+00  0.387912D-02 -0.480601D-01
     14  -0.102687D+00 -0.187094D+00  0.606176D-01  0.885325D-01  0.352888D-02
     15  -0.131666D+00  0.271638D-01  0.151054D+00  0.219278D+00 -0.599868D-01
     16   0.706702D-01 -0.195960D+00 -0.961694D-01  0.108645D+00  0.205484D-02
                21            22            23            24            25 
      1  -0.192408D+04 -0.192408D+04 -0.192408D+04 -0.192408D+04 -0.192408D+04
      2  -0.463614D-01  0.739082D-01 -0.236023D-01 -0.103224D+01 -0.100871D+00
      3  -0.225828D+00  0.752164D-01  0.768089D-01  0.284100D+00 -0.385153D+00
      4  -0.479721D-01  0.128813D+00  0.215188D+00 -0.786753D+00  0.296690D+00
      5   0.474673D-02 -0.793880D-02  0.290337D-02  0.115159D+00  0.943227D-02
      6   0.256277D-01 -0.821991D-02 -0.886645D-02 -0.340996D-01  0.427633D-01
      7   0.598009D-02 -0.140998D-01 -0.241449D-01  0.924366D-01 -0.374644D-01
      8  -0.900335D-01 -0.233234D-01  0.307347D-02 -0.323580D+00 -0.100421D+00
      9   0.152217D-01 -0.634935D-01 -0.356188D-01  0.388788D+00  0.134272D+00
     10   0.622907D-01 -0.999145D-01 -0.920411D-01  0.654051D+00  0.160608D+00
     11  -0.412731D-01  0.573576D-01  0.103790D+00 -0.927108D+00  0.105893D+00
     12   0.947870D-01  0.210978D-01 -0.735300D-01  0.383876D+00 -0.237506D+00
     13   0.539899D-01 -0.692080D-01 -0.333044D-01 -0.126743D+00  0.121958D+00
     14  -0.835430D-01  0.775710D-01  0.457714D-01 -0.119394D+00 -0.183327D+00
     15  -0.878902D-01  0.702732D-01  0.520782D-01 -0.516307D+00  0.934118D-01
     16   0.380517D-01 -0.715863D-01 -0.131594D-01 -0.232134D+00  0.106256D+00
                26            27            28            29            30 
      1  -0.192408D+04 -0.192407D+04 -0.192407D+04 -0.192407D+04 -0.192407D+04
      2   0.407963D+00  0.114843D-01  0.351354D-01  0.317611D+00 -0.308096D+00
      3  -0.435991D+00 -0.124672D+00 -0.769613D-01 -0.390794D+00 -0.159959D+00
      4   0.204387D+00  0.199235D-01  0.219407D+00  0.421600D+00 -0.879602D-01
      5  -0.429674D-01 -0.360268D-03 -0.936880D-02 -0.417144D-01  0.323499D-01
      6   0.480285D-01  0.131205D-01  0.134600D-01  0.478924D-01  0.101235D-01
      7  -0.231078D-01 -0.306809D-02 -0.233093D-01 -0.478157D-01  0.126307D-01
      8   0.307390D+00 -0.104139D+00  0.149526D+00  0.108210D+00 -0.530446D-01
      9  -0.274275D+00  0.260810D-01 -0.130612D+00 -0.494725D-01  0.207743D-01
     10  -0.118635D+00  0.717651D-01 -0.745271D-01 -0.149436D+00  0.415506D-01
     11   0.385935D+00 -0.156098D+00  0.366033D+00  0.522889D+00 -0.276905D+00
     12  -0.270607D+00 -0.104561D+00 -0.328988D+00 -0.336239D+00  0.663661D-01
     13   0.118911D+00  0.818872D-02 -0.314105D-01  0.115635D+00  0.546484D-01
     14  -0.246883D-01 -0.733263D-01  0.736525D-01 -0.103905D-01  0.549946D-01
     15   0.220196D+00  0.459972D-01  0.252698D+00  0.263320D+00 -0.345128D+00
     16   0.172828D+00 -0.322917D-01  0.226136D+00  0.336954D+00  0.122527D+00
                31            32            33            34            35 
      1  -0.192407D+04 -0.192407D+04 -0.192407D+04 -0.192407D+04 -0.192407D+04
      2   0.159878D+00 -0.290590D+00  0.173682D-01  0.701997D-01  0.202333D+00
      3   0.112888D+00 -0.263869D-01  0.165488D+00 -0.218467D-01 -0.212791D-01
      4   0.543622D-02 -0.148611D+00  0.821389D-01  0.120706D-01 -0.562516D-01
      5  -0.192318D-01  0.344149D-01 -0.237766D-02 -0.836976D-02 -0.263471D-01
      6  -0.138172D-01  0.213269D-02 -0.220607D-01  0.234352D-02  0.264707D-02
      7  -0.688524D-03  0.172472D-01 -0.949263D-02 -0.183537D-02  0.740069D-02
      8   0.145380D+00  0.224742D-01 -0.423730D-01  0.772509D-01 -0.229777D+00
      9   0.169698D+00  0.318531D+00 -0.150757D+00 -0.192878D+00  0.229280D-01
     10  -0.926602D-01  0.119227D+00 -0.365680D-01 -0.113746D-01  0.715922D-01
     11   0.298053D-01 -0.416211D+00  0.324424D-02  0.906151D-01 -0.159397D+00
     12   0.360390D-01 -0.104504D+00 -0.492755D-01 -0.121404D+00  0.225732D-01
     13   0.779152D-01  0.168470D-01 -0.357046D-01 -0.578757D-02 -0.240308D-01
     14  -0.233279D-02 -0.144855D+00  0.880989D-01  0.355565D-01  0.179721D-02
     15  -0.861234D-01 -0.188526D+00  0.551115D-02  0.794822D-01  0.818787D-01
     16   0.929345D-01  0.244768D-01 -0.359841D-01  0.454486D-01 -0.315125D-01
                36            37            38            39            40 
      1  -0.192407D+04 -0.192407D+04 -0.192407D+04 -0.192407D+04 -0.192407D+04
      2   0.156339D-01  0.117290D+00 -0.116971D+00 -0.370314D-01  0.228135D-01
      3  -0.248261D-01 -0.144163D+00 -0.128711D+00  0.288600D-01 -0.734782D-01
      4   0.160404D+00  0.402977D-01  0.147390D-01  0.157528D+00 -0.583433D-01
      5  -0.253818D-02 -0.133593D-01  0.138596D-01  0.503366D-02 -0.139337D-02
      6   0.333936D-02  0.171465D-01  0.165584D-01 -0.395222D-02  0.941052D-02
      7  -0.187480D-01 -0.511533D-02 -0.179570D-02 -0.192429D-01  0.666940D-02
      8   0.252069D+00 -0.154990D+00  0.116969D+00 -0.139506D+00 -0.756473D-01
      9   0.100072D+00  0.267549D+00  0.123550D+00 -0.131596D+00 -0.635270D-01
     10  -0.188182D-01  0.680090D-01 -0.869638D-01  0.115867D+00  0.481838D-01
     11   0.422390D-01 -0.698442D-01  0.842305D-01  0.632553D-01 -0.191630D+00
     12  -0.424062D-01  0.642846D-01  0.203796D-01 -0.569219D-01  0.729114D-01
     13   0.828613D-02  0.343540D-01  0.502532D-01 -0.247725D-01  0.480888D-03
     14   0.580405D-03 -0.501877D-01 -0.386154D-01  0.764916D-02 -0.650242D-01
     15  -0.910005D-02 -0.136821D-01 -0.771650D-01  0.107504D-01 -0.317444D-01
     16   0.735500D-01 -0.345489D-01  0.912723D-01  0.749662D-02 -0.778039D-01
                41            42            43            44            45 
      1  -0.192407D+04 -0.192407D+04 -0.192406D+04 -0.192406D+04 -0.192406D+04
      2   0.182738D+00 -0.109467D+00  0.564906D+00 -0.320025D+00 -0.453273D+00
      3  -0.283326D+00  0.115583D+00  0.177976D+00 -0.328341D+00 -0.307457D+00
      4   0.407051D-01 -0.105262D-01  0.126170D+00  0.414277D-02 -0.712862D-01
      5  -0.194438D-01  0.138463D-01 -0.744815D-01  0.426825D-01  0.633607D-01
      6   0.349162D-01 -0.149726D-01 -0.278798D-01  0.454944D-01  0.408196D-01
      7  -0.653048D-02  0.114484D-02 -0.143023D-01 -0.181515D-02  0.730945D-02
      8  -0.148579D+00 -0.826086D-01  0.152311D+00 -0.355394D-02 -0.242599D+00
      9   0.130801D+00  0.778344D-01 -0.304641D+00  0.299582D+00  0.101402D+00
     10   0.425894D-01  0.107979D+00 -0.360330D+00  0.116464D+00  0.307818D+00
     11  -0.125129D+00  0.314604D-01  0.380640D+00 -0.186403D+00 -0.209349D+00
     12  -0.839656D-01 -0.228228D-01  0.201484D+00 -0.108342D-02 -0.331765D+00
     13   0.738294D-01 -0.440132D-01 -0.898692D-02 -0.287654D-01  0.342174D-01
     14  -0.137974D+00  0.670331D-01  0.316035D+00 -0.176597D-01 -0.203746D+00
     15  -0.186533D-01  0.376004D-01  0.190691D+00 -0.278418D+00 -0.942375D-01
     16  -0.472001D-01 -0.533973D-01 -0.776074D-01  0.170098D+00  0.650101D-01
                46            47            48            49            50 
      1  -0.192406D+04 -0.192406D+04 -0.192406D+04 -0.192406D+04 -0.192406D+04
      2   0.184064D+00 -0.403386D+00  0.146730D+00  0.114180D+00 -0.486552D+00
      3   0.261369D+00 -0.379110D-01  0.243945D+00 -0.349356D+00  0.411065D+00
      4  -0.524461D-01  0.533842D-01 -0.108138D+00  0.144599D+00  0.206087D+00
      5  -0.206599D-01  0.487847D-01 -0.226540D-01 -0.148315D-01  0.681598D-01
      6  -0.371487D-01  0.709214D-02 -0.347274D-01  0.394579D-01 -0.575904D-01
      7   0.424674D-02 -0.563335D-02  0.142535D-01 -0.163709D-01 -0.278931D-01
      8   0.154326D+00  0.174193D+00  0.822915D-01  0.115082D+00  0.108622D+00
      9  -0.380732D-01 -0.158333D-01 -0.347628D-01  0.217291D+00 -0.363977D-01
     10  -0.238464D+00 -0.906083D-01 -0.100768D+00 -0.707147D-01 -0.120778D+00
     11   0.297387D+00  0.931400D-01 -0.351545D+00  0.110004D+00  0.438617D+00
     12   0.103591D+00 -0.396442D-01 -0.144773D+00 -0.584115D-01 -0.322334D+00
     13   0.244841D-02 -0.661911D-02 -0.193792D+00  0.154829D+00 -0.117242D+00
     14   0.168455D+00  0.609114D-02  0.153027D+00  0.899437D-01  0.184020D+00
     15  -0.267646D-01 -0.403153D-01  0.131537D+00 -0.836680D-01  0.628428D-01
     16  -0.454104D-01  0.217526D+00 -0.128005D+00  0.131130D+00  0.161137D+00
                51            52            53            54            55 
      1  -0.192406D+04 -0.192406D+04 -0.192406D+04 -0.192406D+04 -0.192406D+04
      2  -0.113643D-01 -0.185168D-01  0.320975D-01 -0.109690D+00  0.692254D-01
      3   0.226368D-01 -0.125451D-02  0.672992D-01 -0.599337D-01  0.287725D+00
      4   0.427708D-02  0.253689D-01  0.657119D-01  0.555647D-01  0.100479D+00
      5  -0.731194D-05  0.105427D-02 -0.440916D-02  0.157200D-01 -0.108057D-01
      6  -0.312362D-02  0.132401D-02 -0.778850D-02  0.975250D-02 -0.412654D-01
      7  -0.100558D-03 -0.328006D-02 -0.100901D-01 -0.881356D-02 -0.155231D-01
      8   0.440222D-01 -0.799968D-01  0.197900D+00 -0.404954D+00 -0.100743D+00
      9  -0.112846D-02 -0.402236D-01 -0.125741D+00 -0.186756D+00  0.651554D+00
     10  -0.627014D-01  0.110428D-01 -0.260142D+00  0.704809D-01 -0.226319D+00
     11   0.386216D-01 -0.666816D-01  0.238929D+00 -0.200248D+00 -0.519148D+00
     12   0.142769D+00 -0.219843D-01 -0.111346D-01  0.363450D+00  0.228783D+00
     13   0.140427D+00 -0.154893D+00  0.197101D+00 -0.609545D-01  0.214456D+00
     14  -0.105903D-01  0.701795D-02  0.618546D-01  0.213254D-01 -0.341841D+00
     15  -0.701550D-01  0.840389D-01  0.860534D-01  0.139294D+00 -0.337782D+00
     16   0.538321D-01 -0.660978D-01  0.832601D-01 -0.366158D+00  0.111192D-02
                56            57            58            59            60 
      1  -0.192406D+04 -0.192405D+04 -0.192405D+04 -0.192405D+04 -0.192405D+04
      2   0.297498D+00 -0.386651D+00  0.356201D-01 -0.223798D+00 -0.307325D+00
      3  -0.144818D+00  0.194857D+00  0.312105D+00  0.686946D-01  0.287420D+00
      4   0.585183D+00  0.726700D-01 -0.462132D-01 -0.109184D+00 -0.367567D+00
      5  -0.418588D-01  0.555552D-01 -0.545729D-02  0.324236D-01  0.458802D-01
      6   0.192839D-01 -0.273006D-01 -0.454133D-01 -0.101960D-01 -0.404749D-01
      7  -0.847721D-01 -0.134005D-01  0.558432D-02  0.160917D-01  0.540738D-01
      8  -0.192210D+00 -0.775328D+00  0.292416D+00 -0.182574D+00 -0.345264D+00
      9  -0.169266D-01  0.111885D+00  0.633153D+00  0.385365D+00  0.450233D+00
     10  -0.707934D+00  0.167735D+00 -0.151183D+00  0.312335D+00  0.830657D+00
     11   0.175128D+00 -0.272522D+00 -0.119705D+00 -0.232626D+00 -0.431539D+00
     12  -0.157462D+00  0.337048D+00 -0.116728D+00  0.215084D+00  0.314046D+00
     13  -0.201738D-01 -0.562506D-01  0.201676D+00  0.989101D-01  0.483458D-01
     14   0.501621D-02 -0.468534D-01 -0.174523D+00 -0.166871D+00 -0.118085D+00
     15   0.640489D-01 -0.595300D-02 -0.273745D+00 -0.206528D+00 -0.123259D+00
     16   0.811530D-01 -0.432422D+00  0.215200D+00 -0.559233D-01 -0.262018D+00
 Unable to Open any file for archive entry.
 1\1\GINC-X1000C2S4B0N1\SP\RB97D3 TD-FC\Gen\C39H28N6Ru1(2+)\PNG4RJV\19-
 Dec-2023\0\\#p B97D3 chkbasis geom=allcheck Guess=Read int=ultrafine s
 crf=(SMD,solvent=n,n-DiMethylFormamide) td=(NStates=60)\\Title\\2,1\C,
 0,-1.6541137605,-2.041541318,0.2672677174\C,0,-2.3968470982,-0.2959962
 907,-1.0914232964\C,0,-3.63367532,-0.9473471135,-1.3525073958\C,0,-3.8
 482683108,-2.1987594099,-0.75091537\C,0,-2.8541895037,-2.7766861594,0.
 0706173824\C,0,-0.6120255966,-2.5496259873,1.0995539847\C,0,1.50412829
 72,-2.2012506176,2.0195939653\C,0,1.4453199729,-3.4452276907,2.6801619
 893\C,0,0.3209025517,-4.2558820715,2.5466510174\C,0,-0.7554217734,-3.8
 130528414,1.7364255341\H,0,-2.1712683066,0.6761443849,-1.5326853571\H,
 0,-4.7920095021,-2.7345190172,-0.891844323\H,0,2.3753389146,-1.5468486
 78,2.1182096196\H,0,2.2951675463,-3.754944904,3.2966211189\H,0,0.25660
 23258,-5.2233872133,3.0563535405\C,0,-0.6761196559,2.6844664163,-0.096
 6520038\C,0,0.3474847983,2.069838887,-2.1030096118\C,0,-0.0178224438,3
 .297738559,-2.6913732939\C,0,-0.7365457498,4.2376776842,-1.9582813839\
 C,0,-1.0855944972,3.9436883768,-0.6148569752\C,0,-1.0013524989,2.31311
 10747,1.2444964052\C,0,-0.8597364692,0.6869907693,2.9131246901\C,0,-1.
 5706080064,1.5118054666,3.808844847\C,0,-2.0091205447,2.768747463,3.40
 28415324\C,0,-1.728048321,3.2036974242,2.081783174\H,0,0.90399065,1.31
 45379821,-2.6656683297\H,0,0.2714253477,3.4911046265,-3.7291569403\H,0
 ,-1.0333463881,5.1948149578,-2.400755705\H,0,-0.5069517968,-0.30458316
 52,3.2122177709\H,0,-1.7693504286,1.1430719451,4.8201122923\H,0,-2.565
 0517101,3.4219672615,4.0841963535\C,0,3.2423237353,0.1831546388,-0.220
 8244856\C,0,2.6705786078,1.4305498069,1.6671668026\C,0,4.0197704072,1.
 785694492,1.8691970835\C,0,5.0023337814,1.3206399459,1.000140692\C,0,4
 .6239933906,0.4917047154,-0.0872331469\C,0,2.7866129675,-0.6466874768,
 -1.2910671357\C,0,0.9649136901,-1.6642994094,-2.3380430014\C,0,1.81175
 26442,-2.226980027,-3.3146389924\C,0,3.1820654422,-1.9870834779,-3.273
 1426068\C,0,3.7085393268,-1.1736758607,-2.2366938243\H,0,1.8850484992,
 1.7819618413,2.3426565692\H,0,6.0561107099,1.5839485303,1.1424229791\H
 ,0,-0.1151573893,-1.8384403266,-2.3555218491\H,0,3.8553856124,-2.41469
 73943,-4.0240243606\N,0,2.2858277174,0.6445818036,0.6490850673\N,0,0.4
 9916475,-1.7571480752,1.2479586902\N,0,-0.5778843359,1.0751977503,1.65
 96152627\N,0,-1.4390187945,-0.8228134433,-0.3179976397\N,0,0.021760596
 3,1.7627420116,-0.837120745\N,0,1.4365895719,-0.8885751327,-1.34912212
 36\Ru,0,0.3822254354,0.0071083614,0.1785440243\C,0,5.5427328406,-0.052
 171113,-1.0537524276\C,0,5.1038711462,-0.8510072965,-2.0843353513\C,0,
 -1.9751891874,-4.5509830262,1.5220623817\C,0,-2.9826183679,-4.05385343
 9,0.728270849\C,0,-2.1313039434,4.4759999122,1.5403376089\C,0,-1.82470
 27853,4.8301583966,0.2466415566\H,0,5.8124953362,-1.2588500275,-2.8136
 185009\H,0,6.6067772847,0.1867350651,-0.9480543227\H,0,-3.9061080308,-
 4.6238952652,0.5779487699\H,0,-2.0835552688,-5.5240245004,2.0138672441
 \H,0,-2.1389132788,5.7997814952,-0.1551222146\H,0,-2.6927163746,5.1594
 835256,2.1869149921\H,0,4.2738805857,2.4280221718,2.7183167102\H,0,1.3
 70267811,-2.8502761188,-4.0986996496\C,0,-4.6408015132,-0.2814944606,-
 2.2237053797\C,0,-5.653634177,-0.9774130594,-2.7908285586\H,0,-5.77130
 48605,-2.060363064,-2.6660120954\H,0,-6.3942126422,-0.4690379026,-3.42
 09436821\C,0,-4.481853426,1.2012416998,-2.4702606881\H,0,-4.3800218616
 ,1.7617357298,-1.5220400018\H,0,-3.5741631485,1.41703781,-3.0655858937
 \H,0,-5.3471152268,1.6013763924,-3.023313555\\Version=AS64L-G16RevC.02
 \State=1-A\HF=-1924.1955612\RMSD=9.004e-09\PG=C01 [X(C39H28N6Ru1)]\\@
 The archive entry for this job was punched.


 MY DESCRIPTION OF EXPERIENCE IS NOT WHAT HAPPENS
 TO A MAN.  EXPERIENCE IS WHAT A MAN DOES WITH WHAT
 HAPPENS TO HIM.
                         - CHUCK KNOX, SEATTLE SEAHAWKS, 1985
 Job cpu time:       0 days 15 hours 10 minutes 48.4 seconds.
 Elapsed time:       0 days  1 hours 18 minutes 51.4 seconds.
 File lengths (MBytes):  RWF=  13529 Int=      0 D2E=      0 Chk=   1336 Scr=      1
 Normal termination of Gaussian 16 at Tue Dec 19 18:06:38 2023.
