 Entering Gaussian System, Link 0=g16
 Input=/project/home/png4rjv/photocat/TMPC_bench/gaussian/Ru-PRC_2_M06L_def2SVP.gjf
 Output=/project/home/png4rjv/photocat/TMPC_bench/gaussian/Ru-PRC_2_M06L_def2SVP.log
 Initial command:
 /opt/software/packages/g16/l1.exe "/scratch/ligandum/png4rjv/3350888/Gau-3011327.inp" -scrdir="/scratch/ligandum/png4rjv/3350888/"
 Default is to use a total of  12 processors:
                               12 via shared-memory
                                1 via Linda
 Entering Link 1 = /opt/software/packages/g16/l1.exe PID=   3011328.
  
 Copyright (c) 1988-2021, Gaussian, Inc.  All Rights Reserved.
  
 This is part of the Gaussian(R) 16 program.  It is based on
 the Gaussian(R) 09 system (copyright 2009, Gaussian, Inc.),
 the Gaussian(R) 03 system (copyright 2003, Gaussian, Inc.),
 the Gaussian(R) 98 system (copyright 1998, Gaussian, Inc.),
 the Gaussian(R) 94 system (copyright 1995, Gaussian, Inc.),
 the Gaussian 92(TM) system (copyright 1992, Gaussian, Inc.),
 the Gaussian 90(TM) system (copyright 1990, Gaussian, Inc.),
 the Gaussian 88(TM) system (copyright 1988, Gaussian, Inc.),
 the Gaussian 86(TM) system (copyright 1986, Carnegie Mellon
 University), and the Gaussian 82(TM) system (copyright 1983,
 Carnegie Mellon University). Gaussian is a federally registered
 trademark of Gaussian, Inc.
  
 This software contains proprietary and confidential information,
 including trade secrets, belonging to Gaussian, Inc.
  
 This software is provided under written license and may be
 used, copied, transmitted, or stored only in accord with that
 written license.
  
 The following legend is applicable only to US Government
 contracts under FAR:
  
                    RESTRICTED RIGHTS LEGEND
  
 Use, reproduction and disclosure by the US Government is
 subject to restrictions as set forth in subparagraphs (a)
 and (c) of the Commercial Computer Software - Restricted
 Rights clause in FAR 52.227-19.
  
 Gaussian, Inc.
 340 Quinnipiac St., Bldg. 40, Wallingford CT 06492
  
  
 ---------------------------------------------------------------
 Warning -- This program may not be used in any manner that
 competes with the business of Gaussian, Inc. or will provide
 assistance to any competitor of Gaussian, Inc.  The licensee
 of this program is prohibited from giving any competitor of
 Gaussian, Inc. access to this program.  By using this program,
 the user acknowledges that Gaussian, Inc. is engaged in the
 business of creating and licensing software in the field of
 computational chemistry and represents and warrants to the
 licensee that it is not a competitor of Gaussian, Inc. and that
 it will not use this program in any manner prohibited above.
 ---------------------------------------------------------------
  

 Cite this work as:
 Gaussian 16, Revision C.02,
 M. J. Frisch, G. W. Trucks, H. B. Schlegel, G. E. Scuseria, 
 M. A. Robb, J. R. Cheeseman, G. Scalmani, V. Barone, 
 G. A. Petersson, H. Nakatsuji, X. Li, M. Caricato, A. V. Marenich, 
 J. Bloino, B. G. Janesko, R. Gomperts, B. Mennucci, H. P. Hratchian, 
 J. V. Ortiz, A. F. Izmaylov, J. L. Sonnenberg, D. Williams-Young, 
 F. Ding, F. Lipparini, F. Egidi, J. Goings, B. Peng, A. Petrone, 
 T. Henderson, D. Ranasinghe, V. G. Zakrzewski, J. Gao, N. Rega, 
 G. Zheng, W. Liang, M. Hada, M. Ehara, K. Toyota, R. Fukuda, 
 J. Hasegawa, M. Ishida, T. Nakajima, Y. Honda, O. Kitao, H. Nakai, 
 T. Vreven, K. Throssell, J. A. Montgomery, Jr., J. E. Peralta, 
 F. Ogliaro, M. J. Bearpark, J. J. Heyd, E. N. Brothers, K. N. Kudin, 
 V. N. Staroverov, T. A. Keith, R. Kobayashi, J. Normand, 
 K. Raghavachari, A. P. Rendell, J. C. Burant, S. S. Iyengar, 
 J. Tomasi, M. Cossi, J. M. Millam, M. Klene, C. Adamo, R. Cammi, 
 J. W. Ochterski, R. L. Martin, K. Morokuma, O. Farkas, 
 J. B. Foresman, and D. J. Fox, Gaussian, Inc., Wallingford CT, 2019.
 
 ******************************************
 Gaussian 16:  AS64L-G16RevC.02  7-Dec-2021
                18-Dec-2023 
 ******************************************
 %chk=cp.chk
 %NProcshared=16
 Will use up to   16 processors via shared memory.
 Default route: MaxDisk=500GB
 ----------------------------------------------------------------------
 #p m06l/def2svp opt Symmetry=None int=ultrafine scrf=(SMD,solvent=n,n-
 DiMethylFormamide)
 ----------------------------------------------------------------------
 1/18=20,19=15,26=6,38=1/1,3;
 2/9=110,12=2,15=3,17=6,18=5,40=1/2;
 3/5=43,7=101,11=2,25=1,30=1,70=32201,71=1,72=148,74=-53,75=-5/1,2,3;
 4//1;
 5/5=2,38=5,53=148/2;
 6/7=2,8=2,9=2,10=2,28=1/1;
 7/30=1/1,2,3,16;
 1/18=20,19=15,26=6/3(2);
 2/9=110,15=3/2;
 99//99;
 2/9=110,15=3/2;
 3/5=43,7=101,11=2,25=1,30=1,70=32205,71=1,72=148,74=-53,75=-5/1,2,3;
 4/5=5,16=3,69=1/1;
 5/5=2,38=5,53=148/2;
 7/30=1/1,2,3,16;
 1/18=20,19=15,26=6/3(-5);
 2/9=110,15=3/2;
 6/7=2,8=2,9=2,10=2,19=2,28=1/1;
 99/9=1/99;
 Leave Link    1 at Mon Dec 18 15:03:33 2023, MaxMem=           0 cpu:               0.1 elap:               0.1
 (Enter /opt/software/packages/g16/l101.exe)
 -----
 Title
 -----
 Symbolic Z-matrix:
 Charge =  2 Multiplicity = 1
 C                     2.34394  -1.85271  -0.06057 
 C                     1.09363  -2.23439  -1.9758 
 C                     2.01275  -3.194    -2.42045 
 C                     3.12734  -3.48536  -1.65648 
 C                     3.31862  -2.80705  -0.43501 
 C                     2.47942  -1.13004   1.1601 
 C                     1.59619   0.46412   2.59367 
 C                     2.65629   0.28583   3.49252 
 C                     3.65311  -0.62891   3.20865 
 C                     3.58404  -1.36971   2.0106 
 H                     0.20835  -1.99013  -2.56767 
 H                     3.85721  -4.22906  -1.98258 
 H                     0.79823   1.1807    2.80233 
 H                     2.67641   0.87751   4.40824 
 H                     4.48869  -0.78514   3.89395 
 C                    -2.43311  -1.19954  -1.15672 
 C                    -1.59785   0.42535  -2.58484 
 C                    -2.65388   0.22082  -3.48286 
 C                    -3.62393  -0.72282  -3.20119 
 C                    -3.53164  -1.46687  -2.00678 
 C                    -2.27518  -1.92328   0.06062 
 C                    -1.01261  -2.27691   1.97317 
 C                    -1.90357  -3.26412   2.4148 
 C                    -3.01006  -3.5842    1.65057 
 C                    -3.22191  -2.90669   0.43197 
 H                    -0.82085   1.16531  -2.79135 
 H                    -2.69221   0.81552  -4.39604 
 H                    -4.45604  -0.89978  -3.88567 
 H                    -0.13425  -2.00953   2.56539 
 H                    -1.70581  -3.76784   3.36154 
 H                    -3.71807  -4.34975   1.97431 
 C                    -0.58215   2.69203   0.46457 
 C                    -2.01984   1.42249   1.76585 
 C                    -2.64563   2.57096   2.2974 
 C                    -2.19363   3.81146   1.86819 
 C                    -1.14323   3.901     0.93287 
 C                     0.48681   2.70994  -0.4746 
 C                     1.98237   1.48967  -1.75786 
 C                     2.55729   2.65821  -2.30282 
 C                     2.0481    3.88249  -1.89147 
 C                     0.99323   3.9367   -0.95842 
 H                    -2.34789   0.42692   2.07986 
 H                    -2.64997   4.72732   2.25226 
 H                     2.35522   0.50605  -2.05891 
 H                     2.46272   4.81284  -2.28773 
 N                    -1.02313   1.47156   0.88472 
 N                     1.50108  -0.22503   1.45474 
 N                    -1.18866  -1.61558   0.82736 
 N                     1.24963  -1.57313  -0.82693 
 N                    -1.48173  -0.26566  -1.44892 
 N                     0.98202   1.50519  -0.87959 
 Ru                    0.00769  -0.11887   0.00308 
 C                    -0.61421   5.13399   0.43239 
 C                     0.40825   5.15106  -0.4748 
 C                     4.55717  -2.34073   1.61186 
 C                     4.43065  -3.02893   0.43845 
 C                    -4.328    -3.15684  -0.44139 
 C                    -4.47592  -2.46736  -1.6115 
 H                     0.80116   6.09874  -0.8492 
 H                    -1.04982   6.0678    0.79427 
 H                     5.17917  -3.76712   0.1433 
 H                     5.40817  -2.51966   2.27234 
 H                    -5.32223  -2.66776  -2.27183 
 H                    -5.0545   -3.91772  -0.14882 
 H                    -3.43931   2.45907   3.00624 
 H                     3.35832   2.57296  -3.00707 
 C                     1.755    -3.90758  -3.76059 
 C                     2.6267   -4.84009  -4.2157 
 H                     3.54403  -5.01957  -3.69495 
 H                     2.39683  -5.39879  -5.09883 
 C                     0.50238  -3.56029  -4.58639 
 H                    -0.37426  -3.76755  -4.00895 
 H                     0.52207  -2.52214  -4.84479 
 H                     0.48902  -4.14987  -5.47921 
 
 ITRead=  0  0  0  0  0  0  0  0  0  0  0  0  0  0  0  0  0  0  0  0
 ITRead=  0  0  0  0  0  0  0  0  0  0  0  0  0  0  0  0  0  0  0  0
 ITRead=  0  0  0  0  0  0  0  0  0  0  0  0  0  0  0  0  0  0  0  0
 ITRead=  0  0  0  0  0  0  0  0  0  0  0  0  0  0
 MicOpt= -1 -1 -1 -1 -1 -1 -1 -1 -1 -1 -1 -1 -1 -1 -1 -1 -1 -1 -1 -1
 MicOpt= -1 -1 -1 -1 -1 -1 -1 -1 -1 -1 -1 -1 -1 -1 -1 -1 -1 -1 -1 -1
 MicOpt= -1 -1 -1 -1 -1 -1 -1 -1 -1 -1 -1 -1 -1 -1 -1 -1 -1 -1 -1 -1
 MicOpt= -1 -1 -1 -1 -1 -1 -1 -1 -1 -1 -1 -1 -1 -1
 NAtoms=     74 NQM=       74 NQMF=       0 NMMI=      0 NMMIF=      0
                NMic=       0 NMicF=      0.
                    Isotopes and Nuclear Properties:
 (Nuclear quadrupole moments (NQMom) in fm**2, nuclear magnetic moments (NMagM)
  in nuclear magnetons)

  Atom         1           2           3           4           5           6           7           8           9          10
 IAtWgt=          12          12          12          12          12          12          12          12          12          12
 AtmWgt=  12.0000000  12.0000000  12.0000000  12.0000000  12.0000000  12.0000000  12.0000000  12.0000000  12.0000000  12.0000000
 NucSpn=           0           0           0           0           0           0           0           0           0           0
 AtZEff=  -0.0000000  -0.0000000  -0.0000000  -0.0000000  -0.0000000  -0.0000000  -0.0000000  -0.0000000  -0.0000000  -0.0000000
 NQMom=    0.0000000   0.0000000   0.0000000   0.0000000   0.0000000   0.0000000   0.0000000   0.0000000   0.0000000   0.0000000
 NMagM=    0.0000000   0.0000000   0.0000000   0.0000000   0.0000000   0.0000000   0.0000000   0.0000000   0.0000000   0.0000000
 AtZNuc=   6.0000000   6.0000000   6.0000000   6.0000000   6.0000000   6.0000000   6.0000000   6.0000000   6.0000000   6.0000000

  Atom        11          12          13          14          15          16          17          18          19          20
 IAtWgt=           1           1           1           1           1          12          12          12          12          12
 AtmWgt=   1.0078250   1.0078250   1.0078250   1.0078250   1.0078250  12.0000000  12.0000000  12.0000000  12.0000000  12.0000000
 NucSpn=           1           1           1           1           1           0           0           0           0           0
 AtZEff=  -0.0000000  -0.0000000  -0.0000000  -0.0000000  -0.0000000  -0.0000000  -0.0000000  -0.0000000  -0.0000000  -0.0000000
 NQMom=    0.0000000   0.0000000   0.0000000   0.0000000   0.0000000   0.0000000   0.0000000   0.0000000   0.0000000   0.0000000
 NMagM=    2.7928460   2.7928460   2.7928460   2.7928460   2.7928460   0.0000000   0.0000000   0.0000000   0.0000000   0.0000000
 AtZNuc=   1.0000000   1.0000000   1.0000000   1.0000000   1.0000000   6.0000000   6.0000000   6.0000000   6.0000000   6.0000000

  Atom        21          22          23          24          25          26          27          28          29          30
 IAtWgt=          12          12          12          12          12           1           1           1           1           1
 AtmWgt=  12.0000000  12.0000000  12.0000000  12.0000000  12.0000000   1.0078250   1.0078250   1.0078250   1.0078250   1.0078250
 NucSpn=           0           0           0           0           0           1           1           1           1           1
 AtZEff=  -0.0000000  -0.0000000  -0.0000000  -0.0000000  -0.0000000  -0.0000000  -0.0000000  -0.0000000  -0.0000000  -0.0000000
 NQMom=    0.0000000   0.0000000   0.0000000   0.0000000   0.0000000   0.0000000   0.0000000   0.0000000   0.0000000   0.0000000
 NMagM=    0.0000000   0.0000000   0.0000000   0.0000000   0.0000000   2.7928460   2.7928460   2.7928460   2.7928460   2.7928460
 AtZNuc=   6.0000000   6.0000000   6.0000000   6.0000000   6.0000000   1.0000000   1.0000000   1.0000000   1.0000000   1.0000000

  Atom        31          32          33          34          35          36          37          38          39          40
 IAtWgt=           1          12          12          12          12          12          12          12          12          12
 AtmWgt=   1.0078250  12.0000000  12.0000000  12.0000000  12.0000000  12.0000000  12.0000000  12.0000000  12.0000000  12.0000000
 NucSpn=           1           0           0           0           0           0           0           0           0           0
 AtZEff=  -0.0000000  -0.0000000  -0.0000000  -0.0000000  -0.0000000  -0.0000000  -0.0000000  -0.0000000  -0.0000000  -0.0000000
 NQMom=    0.0000000   0.0000000   0.0000000   0.0000000   0.0000000   0.0000000   0.0000000   0.0000000   0.0000000   0.0000000
 NMagM=    2.7928460   0.0000000   0.0000000   0.0000000   0.0000000   0.0000000   0.0000000   0.0000000   0.0000000   0.0000000
 AtZNuc=   1.0000000   6.0000000   6.0000000   6.0000000   6.0000000   6.0000000   6.0000000   6.0000000   6.0000000   6.0000000

  Atom        41          42          43          44          45          46          47          48          49          50
 IAtWgt=          12           1           1           1           1          14          14          14          14          14
 AtmWgt=  12.0000000   1.0078250   1.0078250   1.0078250   1.0078250  14.0030740  14.0030740  14.0030740  14.0030740  14.0030740
 NucSpn=           0           1           1           1           1           2           2           2           2           2
 AtZEff=  -0.0000000  -0.0000000  -0.0000000  -0.0000000  -0.0000000  -0.0000000  -0.0000000  -0.0000000  -0.0000000  -0.0000000
 NQMom=    0.0000000   0.0000000   0.0000000   0.0000000   0.0000000   2.0440000   2.0440000   2.0440000   2.0440000   2.0440000
 NMagM=    0.0000000   2.7928460   2.7928460   2.7928460   2.7928460   0.4037610   0.4037610   0.4037610   0.4037610   0.4037610
 AtZNuc=   6.0000000   1.0000000   1.0000000   1.0000000   1.0000000   7.0000000   7.0000000   7.0000000   7.0000000   7.0000000

  Atom        51          52          53          54          55          56          57          58          59          60
 IAtWgt=          14         102          12          12          12          12          12          12           1           1
 AtmWgt=  14.0030740 101.9037000  12.0000000  12.0000000  12.0000000  12.0000000  12.0000000  12.0000000   1.0078250   1.0078250
 NucSpn=           2           0           0           0           0           0           0           0           1           1
 AtZEff=  -0.0000000  -0.0000000  -0.0000000  -0.0000000  -0.0000000  -0.0000000  -0.0000000  -0.0000000  -0.0000000  -0.0000000
 NQMom=    2.0440000   0.0000000   0.0000000   0.0000000   0.0000000   0.0000000   0.0000000   0.0000000   0.0000000   0.0000000
 NMagM=    0.4037610   0.0000000   0.0000000   0.0000000   0.0000000   0.0000000   0.0000000   0.0000000   2.7928460   2.7928460
 AtZNuc=   7.0000000  44.0000000   6.0000000   6.0000000   6.0000000   6.0000000   6.0000000   6.0000000   1.0000000   1.0000000

  Atom        61          62          63          64          65          66          67          68          69          70
 IAtWgt=           1           1           1           1           1           1          12          12           1           1
 AtmWgt=   1.0078250   1.0078250   1.0078250   1.0078250   1.0078250   1.0078250  12.0000000  12.0000000   1.0078250   1.0078250
 NucSpn=           1           1           1           1           1           1           0           0           1           1
 AtZEff=  -0.0000000  -0.0000000  -0.0000000  -0.0000000  -0.0000000  -0.0000000  -0.0000000  -0.0000000  -0.0000000  -0.0000000
 NQMom=    0.0000000   0.0000000   0.0000000   0.0000000   0.0000000   0.0000000   0.0000000   0.0000000   0.0000000   0.0000000
 NMagM=    2.7928460   2.7928460   2.7928460   2.7928460   2.7928460   2.7928460   0.0000000   0.0000000   2.7928460   2.7928460
 AtZNuc=   1.0000000   1.0000000   1.0000000   1.0000000   1.0000000   1.0000000   6.0000000   6.0000000   1.0000000   1.0000000

  Atom        71          72          73          74
 IAtWgt=          12           1           1           1
 AtmWgt=  12.0000000   1.0078250   1.0078250   1.0078250
 NucSpn=           0           1           1           1
 AtZEff=  -0.0000000  -0.0000000  -0.0000000  -0.0000000
 NQMom=    0.0000000   0.0000000   0.0000000   0.0000000
 NMagM=    0.0000000   2.7928460   2.7928460   2.7928460
 AtZNuc=   6.0000000   1.0000000   1.0000000   1.0000000
 Leave Link  101 at Mon Dec 18 15:03:34 2023, MaxMem=  2831155200 cpu:               0.1 elap:               0.1
 (Enter /opt/software/packages/g16/l103.exe)

 GradGradGradGradGradGradGradGradGradGradGradGradGradGradGradGradGradGrad
 Berny optimization.
 Initialization pass.
                           ----------------------------
                           !    Initial Parameters    !
                           ! (Angstroms and Degrees)  !
 --------------------------                            --------------------------
 ! Name  Definition              Value          Derivative Info.                !
 --------------------------------------------------------------------------------
 ! R1    R(1,5)                  1.4146         estimate D2E/DX2                !
 ! R2    R(1,6)                  1.425          estimate D2E/DX2                !
 ! R3    R(1,49)                 1.3649         estimate D2E/DX2                !
 ! R4    R(2,3)                  1.4012         estimate D2E/DX2                !
 ! R5    R(2,11)                 1.0926         estimate D2E/DX2                !
 ! R6    R(2,49)                 1.3347         estimate D2E/DX2                !
 ! R7    R(3,4)                  1.3823         estimate D2E/DX2                !
 ! R8    R(3,67)                 1.54           estimate D2E/DX2                !
 ! R9    R(4,5)                  1.4102         estimate D2E/DX2                !
 ! R10   R(4,12)                 1.0919         estimate D2E/DX2                !
 ! R11   R(5,56)                 1.4313         estimate D2E/DX2                !
 ! R12   R(6,10)                 1.4146         estimate D2E/DX2                !
 ! R13   R(6,47)                 1.3649         estimate D2E/DX2                !
 ! R14   R(7,8)                  1.4013         estimate D2E/DX2                !
 ! R15   R(7,13)                 1.0926         estimate D2E/DX2                !
 ! R16   R(7,47)                 1.3346         estimate D2E/DX2                !
 ! R17   R(8,9)                  1.3824         estimate D2E/DX2                !
 ! R18   R(8,14)                 1.0904         estimate D2E/DX2                !
 ! R19   R(9,10)                 1.4103         estimate D2E/DX2                !
 ! R20   R(9,15)                 1.0919         estimate D2E/DX2                !
 ! R21   R(10,55)                1.4314         estimate D2E/DX2                !
 ! R22   R(16,20)                1.4145         estimate D2E/DX2                !
 ! R23   R(16,21)                1.425          estimate D2E/DX2                !
 ! R24   R(16,50)                1.3648         estimate D2E/DX2                !
 ! R25   R(17,18)                1.4012         estimate D2E/DX2                !
 ! R26   R(17,26)                1.0927         estimate D2E/DX2                !
 ! R27   R(17,50)                1.3347         estimate D2E/DX2                !
 ! R28   R(18,19)                1.3823         estimate D2E/DX2                !
 ! R29   R(18,27)                1.0904         estimate D2E/DX2                !
 ! R30   R(19,20)                1.4102         estimate D2E/DX2                !
 ! R31   R(19,28)                1.0919         estimate D2E/DX2                !
 ! R32   R(20,58)                1.4314         estimate D2E/DX2                !
 ! R33   R(21,25)                1.4147         estimate D2E/DX2                !
 ! R34   R(21,48)                1.365          estimate D2E/DX2                !
 ! R35   R(22,23)                1.4012         estimate D2E/DX2                !
 ! R36   R(22,29)                1.0926         estimate D2E/DX2                !
 ! R37   R(22,48)                1.3346         estimate D2E/DX2                !
 ! R38   R(23,24)                1.3823         estimate D2E/DX2                !
 ! R39   R(23,30)                1.0905         estimate D2E/DX2                !
 ! R40   R(24,25)                1.4103         estimate D2E/DX2                !
 ! R41   R(24,31)                1.0919         estimate D2E/DX2                !
 ! R42   R(25,57)                1.4313         estimate D2E/DX2                !
 ! R43   R(32,36)                1.4127         estimate D2E/DX2                !
 ! R44   R(32,37)                1.423          estimate D2E/DX2                !
 ! R45   R(32,46)                1.364          estimate D2E/DX2                !
 ! R46   R(33,34)                1.4118         estimate D2E/DX2                !
 ! R47   R(33,42)                1.0942         estimate D2E/DX2                !
 ! R48   R(33,46)                1.3313         estimate D2E/DX2                !
 ! R49   R(34,35)                1.3883         estimate D2E/DX2                !
 ! R50   R(34,65)                1.07           estimate D2E/DX2                !
 ! R51   R(35,36)                1.4093         estimate D2E/DX2                !
 ! R52   R(35,43)                1.093          estimate D2E/DX2                !
 ! R53   R(36,53)                1.432          estimate D2E/DX2                !
 ! R54   R(37,41)                1.4126         estimate D2E/DX2                !
 ! R55   R(37,51)                1.3641         estimate D2E/DX2                !
 ! R56   R(38,39)                1.4117         estimate D2E/DX2                !
 ! R57   R(38,44)                1.0941         estimate D2E/DX2                !
 ! R58   R(38,51)                1.3313         estimate D2E/DX2                !
 ! R59   R(39,40)                1.3883         estimate D2E/DX2                !
 ! R60   R(39,66)                1.07           estimate D2E/DX2                !
 ! R61   R(40,41)                1.4094         estimate D2E/DX2                !
 ! R62   R(40,45)                1.0929         estimate D2E/DX2                !
 ! R63   R(41,54)                1.432          estimate D2E/DX2                !
 ! R64   R(46,52)                2.0903         estimate D2E/DX2                !
 ! R65   R(47,52)                2.0854         estimate D2E/DX2                !
 ! R66   R(48,52)                2.0859         estimate D2E/DX2                !
 ! R67   R(49,52)                2.0848         estimate D2E/DX2                !
 ! R68   R(50,52)                2.0852         estimate D2E/DX2                !
 ! R69   R(51,52)                2.0895         estimate D2E/DX2                !
 ! R70   R(53,54)                1.367          estimate D2E/DX2                !
 ! R71   R(53,60)                1.0921         estimate D2E/DX2                !
 ! R72   R(54,59)                1.0921         estimate D2E/DX2                !
 ! R73   R(55,56)                1.3662         estimate D2E/DX2                !
 ! R74   R(55,62)                1.092          estimate D2E/DX2                !
 ! R75   R(56,61)                1.0919         estimate D2E/DX2                !
 ! R76   R(57,58)                1.3662         estimate D2E/DX2                !
 ! R77   R(57,64)                1.0919         estimate D2E/DX2                !
 ! R78   R(58,63)                1.092          estimate D2E/DX2                !
 ! R79   R(67,68)                1.3552         estimate D2E/DX2                !
 ! R80   R(67,71)                1.54           estimate D2E/DX2                !
 ! R81   R(68,69)                1.07           estimate D2E/DX2                !
 ! R82   R(68,70)                1.07           estimate D2E/DX2                !
 ! R83   R(71,72)                1.07           estimate D2E/DX2                !
 ! R84   R(71,73)                1.07           estimate D2E/DX2                !
 ! R85   R(71,74)                1.07           estimate D2E/DX2                !
 ! A1    A(5,1,6)              120.2241         estimate D2E/DX2                !
 ! A2    A(5,1,49)             122.8194         estimate D2E/DX2                !
 ! A3    A(6,1,49)             116.9562         estimate D2E/DX2                !
 ! A4    A(3,2,11)             120.8438         estimate D2E/DX2                !
 ! A5    A(3,2,49)             122.3969         estimate D2E/DX2                !
 ! A6    A(11,2,49)            116.7587         estimate D2E/DX2                !
 ! A7    A(2,3,4)              119.8586         estimate D2E/DX2                !
 ! A8    A(2,3,67)             118.9276         estimate D2E/DX2                !
 ! A9    A(4,3,67)             121.2137         estimate D2E/DX2                !
 ! A10   A(3,4,5)              119.1234         estimate D2E/DX2                !
 ! A11   A(3,4,12)             121.1639         estimate D2E/DX2                !
 ! A12   A(5,4,12)             119.7127         estimate D2E/DX2                !
 ! A13   A(1,5,4)              117.408          estimate D2E/DX2                !
 ! A14   A(1,5,56)             118.5784         estimate D2E/DX2                !
 ! A15   A(4,5,56)             124.0136         estimate D2E/DX2                !
 ! A16   A(1,6,10)             120.2219         estimate D2E/DX2                !
 ! A17   A(1,6,47)             116.9378         estimate D2E/DX2                !
 ! A18   A(10,6,47)            122.8387         estimate D2E/DX2                !
 ! A19   A(8,7,13)             120.8947         estimate D2E/DX2                !
 ! A20   A(8,7,47)             122.387          estimate D2E/DX2                !
 ! A21   A(13,7,47)            116.7175         estimate D2E/DX2                !
 ! A22   A(7,8,9)              119.8672         estimate D2E/DX2                !
 ! A23   A(7,8,14)             118.9215         estimate D2E/DX2                !
 ! A24   A(9,8,14)             121.2113         estimate D2E/DX2                !
 ! A25   A(8,9,10)             119.1253         estimate D2E/DX2                !
 ! A26   A(8,9,15)             121.1722         estimate D2E/DX2                !
 ! A27   A(10,9,15)            119.7025         estimate D2E/DX2                !
 ! A28   A(6,10,9)             117.3882         estimate D2E/DX2                !
 ! A29   A(6,10,55)            118.5774         estimate D2E/DX2                !
 ! A30   A(9,10,55)            124.0344         estimate D2E/DX2                !
 ! A31   A(20,16,21)           120.2294         estimate D2E/DX2                !
 ! A32   A(20,16,50)           122.8217         estimate D2E/DX2                !
 ! A33   A(21,16,50)           116.9474         estimate D2E/DX2                !
 ! A34   A(18,17,26)           120.9068         estimate D2E/DX2                !
 ! A35   A(18,17,50)           122.3741         estimate D2E/DX2                !
 ! A36   A(26,17,50)           116.7184         estimate D2E/DX2                !
 ! A37   A(17,18,19)           119.8628         estimate D2E/DX2                !
 ! A38   A(17,18,27)           118.9198         estimate D2E/DX2                !
 ! A39   A(19,18,27)           121.2174         estimate D2E/DX2                !
 ! A40   A(18,19,20)           119.1326         estimate D2E/DX2                !
 ! A41   A(18,19,28)           121.177          estimate D2E/DX2                !
 ! A42   A(20,19,28)           119.6904         estimate D2E/DX2                !
 ! A43   A(16,20,19)           117.3938         estimate D2E/DX2                !
 ! A44   A(16,20,58)           118.5855         estimate D2E/DX2                !
 ! A45   A(19,20,58)           124.0207         estimate D2E/DX2                !
 ! A46   A(16,21,25)           120.2074         estimate D2E/DX2                !
 ! A47   A(16,21,48)           116.9747         estimate D2E/DX2                !
 ! A48   A(25,21,48)           122.8175         estimate D2E/DX2                !
 ! A49   A(23,22,29)           120.8481         estimate D2E/DX2                !
 ! A50   A(23,22,48)           122.3991         estimate D2E/DX2                !
 ! A51   A(29,22,48)           116.752          estimate D2E/DX2                !
 ! A52   A(22,23,24)           119.8586         estimate D2E/DX2                !
 ! A53   A(22,23,30)           118.9311         estimate D2E/DX2                !
 ! A54   A(24,23,30)           121.2103         estimate D2E/DX2                !
 ! A55   A(23,24,25)           119.1249         estimate D2E/DX2                !
 ! A56   A(23,24,31)           121.1637         estimate D2E/DX2                !
 ! A57   A(25,24,31)           119.7114         estimate D2E/DX2                !
 ! A58   A(21,25,24)           117.4032         estimate D2E/DX2                !
 ! A59   A(21,25,57)           118.5857         estimate D2E/DX2                !
 ! A60   A(24,25,57)           124.0111         estimate D2E/DX2                !
 ! A61   A(36,32,37)           120.4213         estimate D2E/DX2                !
 ! A62   A(36,32,46)           122.3584         estimate D2E/DX2                !
 ! A63   A(37,32,46)           117.2196         estimate D2E/DX2                !
 ! A64   A(34,33,42)           119.9476         estimate D2E/DX2                !
 ! A65   A(34,33,46)           123.4417         estimate D2E/DX2                !
 ! A66   A(42,33,46)           116.6102         estimate D2E/DX2                !
 ! A67   A(33,34,35)           117.786          estimate D2E/DX2                !
 ! A68   A(33,34,65)           119.5475         estimate D2E/DX2                !
 ! A69   A(35,34,65)           122.6665         estimate D2E/DX2                !
 ! A70   A(34,35,36)           120.3056         estimate D2E/DX2                !
 ! A71   A(34,35,43)           120.2772         estimate D2E/DX2                !
 ! A72   A(36,35,43)           119.4172         estimate D2E/DX2                !
 ! A73   A(32,36,35)           117.4936         estimate D2E/DX2                !
 ! A74   A(32,36,53)           118.3124         estimate D2E/DX2                !
 ! A75   A(35,36,53)           124.194          estimate D2E/DX2                !
 ! A76   A(32,37,41)           120.4154         estimate D2E/DX2                !
 ! A77   A(32,37,51)           117.2286         estimate D2E/DX2                !
 ! A78   A(41,37,51)           122.3553         estimate D2E/DX2                !
 ! A79   A(39,38,44)           119.9429         estimate D2E/DX2                !
 ! A80   A(39,38,51)           123.437          estimate D2E/DX2                !
 ! A81   A(44,38,51)           116.6194         estimate D2E/DX2                !
 ! A82   A(38,39,40)           117.7884         estimate D2E/DX2                !
 ! A83   A(38,39,66)           119.5376         estimate D2E/DX2                !
 ! A84   A(40,39,66)           122.674          estimate D2E/DX2                !
 ! A85   A(39,40,41)           120.3052         estimate D2E/DX2                !
 ! A86   A(39,40,45)           120.2723         estimate D2E/DX2                !
 ! A87   A(41,40,45)           119.4225         estimate D2E/DX2                !
 ! A88   A(37,41,40)           117.495          estimate D2E/DX2                !
 ! A89   A(37,41,54)           118.3145         estimate D2E/DX2                !
 ! A90   A(40,41,54)           124.1905         estimate D2E/DX2                !
 ! A91   A(32,46,33)           118.614          estimate D2E/DX2                !
 ! A92   A(32,46,52)           113.0443         estimate D2E/DX2                !
 ! A93   A(33,46,52)           128.3411         estimate D2E/DX2                !
 ! A94   A(6,47,7)             118.393          estimate D2E/DX2                !
 ! A95   A(6,47,52)            113.3777         estimate D2E/DX2                !
 ! A96   A(7,47,52)            128.229          estimate D2E/DX2                !
 ! A97   A(21,48,22)           118.396          estimate D2E/DX2                !
 ! A98   A(21,48,52)           113.3489         estimate D2E/DX2                !
 ! A99   A(22,48,52)           128.2551         estimate D2E/DX2                !
 ! A100  A(1,49,2)             118.393          estimate D2E/DX2                !
 ! A101  A(1,49,52)            113.3882         estimate D2E/DX2                !
 ! A102  A(2,49,52)            128.2185         estimate D2E/DX2                !
 ! A103  A(16,50,17)           118.4145         estimate D2E/DX2                !
 ! A104  A(16,50,52)           113.3904         estimate D2E/DX2                !
 ! A105  A(17,50,52)           128.195          estimate D2E/DX2                !
 ! A106  A(37,51,38)           118.618          estimate D2E/DX2                !
 ! A107  A(37,51,52)           113.0643         estimate D2E/DX2                !
 ! A108  A(38,51,52)           128.3169         estimate D2E/DX2                !
 ! A109  A(46,52,47)            95.6404         estimate D2E/DX2                !
 ! A110  A(46,52,48)            95.5342         estimate D2E/DX2                !
 ! A111  A(46,52,50)            89.7145         estimate D2E/DX2                !
 ! A112  A(46,52,51)            79.4407         estimate D2E/DX2                !
 ! A113  A(47,52,48)            95.6886         estimate D2E/DX2                !
 ! A114  A(47,52,49)            79.34           estimate D2E/DX2                !
 ! A115  A(47,52,51)            89.9828         estimate D2E/DX2                !
 ! A116  A(48,52,49)            89.9124         estimate D2E/DX2                !
 ! A117  A(48,52,50)            79.3382         estimate D2E/DX2                !
 ! A118  A(49,52,50)            95.6914         estimate D2E/DX2                !
 ! A119  A(49,52,51)            95.5209         estimate D2E/DX2                !
 ! A120  A(50,52,51)            95.3722         estimate D2E/DX2                !
 ! A121  A(36,53,54)           121.2653         estimate D2E/DX2                !
 ! A122  A(36,53,60)           118.2333         estimate D2E/DX2                !
 ! A123  A(54,53,60)           120.5014         estimate D2E/DX2                !
 ! A124  A(41,54,53)           121.2694         estimate D2E/DX2                !
 ! A125  A(41,54,59)           118.2369         estimate D2E/DX2                !
 ! A126  A(53,54,59)           120.4937         estimate D2E/DX2                !
 ! A127  A(10,55,56)           121.1988         estimate D2E/DX2                !
 ! A128  A(10,55,62)           118.1957         estimate D2E/DX2                !
 ! A129  A(56,55,62)           120.6054         estimate D2E/DX2                !
 ! A130  A(5,56,55)            121.1976         estimate D2E/DX2                !
 ! A131  A(5,56,61)            118.1912         estimate D2E/DX2                !
 ! A132  A(55,56,61)           120.6112         estimate D2E/DX2                !
 ! A133  A(25,57,58)           121.2028         estimate D2E/DX2                !
 ! A134  A(25,57,64)           118.1927         estimate D2E/DX2                !
 ! A135  A(58,57,64)           120.6044         estimate D2E/DX2                !
 ! A136  A(20,58,57)           121.1875         estimate D2E/DX2                !
 ! A137  A(20,58,63)           118.2002         estimate D2E/DX2                !
 ! A138  A(57,58,63)           120.6123         estimate D2E/DX2                !
 ! A139  A(3,67,68)            120.2269         estimate D2E/DX2                !
 ! A140  A(3,67,71)            119.8865         estimate D2E/DX2                !
 ! A141  A(68,67,71)           119.8865         estimate D2E/DX2                !
 ! A142  A(67,68,69)           120.2269         estimate D2E/DX2                !
 ! A143  A(67,68,70)           119.8865         estimate D2E/DX2                !
 ! A144  A(69,68,70)           119.8865         estimate D2E/DX2                !
 ! A145  A(67,71,72)           109.4712         estimate D2E/DX2                !
 ! A146  A(67,71,73)           109.4712         estimate D2E/DX2                !
 ! A147  A(67,71,74)           109.4712         estimate D2E/DX2                !
 ! A148  A(72,71,73)           109.4713         estimate D2E/DX2                !
 ! A149  A(72,71,74)           109.4712         estimate D2E/DX2                !
 ! A150  A(73,71,74)           109.4712         estimate D2E/DX2                !
 ! A151  L(46,52,49,47,-1)     174.9804         estimate D2E/DX2                !
 ! A152  L(47,52,50,46,-1)     185.3549         estimate D2E/DX2                !
 ! A153  L(48,52,51,46,-1)     174.9749         estimate D2E/DX2                !
 ! A154  L(46,52,49,47,-2)     184.9915         estimate D2E/DX2                !
 ! A155  L(47,52,50,46,-2)     184.446          estimate D2E/DX2                !
 ! A156  L(48,52,51,46,-2)     185.2221         estimate D2E/DX2                !
 ! D1    D(6,1,5,4)           -179.8477         estimate D2E/DX2                !
 ! D2    D(6,1,5,56)             0.2326         estimate D2E/DX2                !
 ! D3    D(49,1,5,4)            -0.0497         estimate D2E/DX2                !
 ! D4    D(49,1,5,56)         -179.9694         estimate D2E/DX2                !
 ! D5    D(5,1,6,10)            -0.4961         estimate D2E/DX2                !
 ! D6    D(5,1,6,47)           179.944          estimate D2E/DX2                !
 ! D7    D(49,1,6,10)          179.6943         estimate D2E/DX2                !
 ! D8    D(49,1,6,47)            0.1344         estimate D2E/DX2                !
 ! D9    D(5,1,49,2)             0.2583         estimate D2E/DX2                !
 ! D10   D(5,1,49,52)         -179.9412         estimate D2E/DX2                !
 ! D11   D(6,1,49,2)          -179.9375         estimate D2E/DX2                !
 ! D12   D(6,1,49,52)           -0.137          estimate D2E/DX2                !
 ! D13   D(11,2,3,4)           179.8754         estimate D2E/DX2                !
 ! D14   D(11,2,3,67)           -0.1892         estimate D2E/DX2                !
 ! D15   D(49,2,3,4)             0.1659         estimate D2E/DX2                !
 ! D16   D(49,2,3,67)         -179.8987         estimate D2E/DX2                !
 ! D17   D(3,2,49,1)            -0.3157         estimate D2E/DX2                !
 ! D18   D(3,2,49,52)          179.9173         estimate D2E/DX2                !
 ! D19   D(11,2,49,1)          179.9635         estimate D2E/DX2                !
 ! D20   D(11,2,49,52)           0.1966         estimate D2E/DX2                !
 ! D21   D(2,3,4,5)              0.0521         estimate D2E/DX2                !
 ! D22   D(2,3,4,12)          -179.9889         estimate D2E/DX2                !
 ! D23   D(67,3,4,5)          -179.8818         estimate D2E/DX2                !
 ! D24   D(67,3,4,12)            0.0772         estimate D2E/DX2                !
 ! D25   D(2,3,67,68)          180.0            estimate D2E/DX2                !
 ! D26   D(2,3,67,71)            0.0            estimate D2E/DX2                !
 ! D27   D(4,3,67,68)           -0.0655         estimate D2E/DX2                !
 ! D28   D(4,3,67,71)          179.9345         estimate D2E/DX2                !
 ! D29   D(3,4,5,1)             -0.1044         estimate D2E/DX2                !
 ! D30   D(3,4,5,56)           179.8105         estimate D2E/DX2                !
 ! D31   D(12,4,5,1)           179.936          estimate D2E/DX2                !
 ! D32   D(12,4,5,56)           -0.1491         estimate D2E/DX2                !
 ! D33   D(1,5,56,55)            0.0854         estimate D2E/DX2                !
 ! D34   D(1,5,56,61)          179.9901         estimate D2E/DX2                !
 ! D35   D(4,5,56,55)         -179.8286         estimate D2E/DX2                !
 ! D36   D(4,5,56,61)            0.0761         estimate D2E/DX2                !
 ! D37   D(1,6,10,9)          -179.498          estimate D2E/DX2                !
 ! D38   D(1,6,10,55)            0.4352         estimate D2E/DX2                !
 ! D39   D(47,6,10,9)            0.035          estimate D2E/DX2                !
 ! D40   D(47,6,10,55)         179.9682         estimate D2E/DX2                !
 ! D41   D(1,6,47,7)           179.7309         estimate D2E/DX2                !
 ! D42   D(1,6,47,52)           -0.0613         estimate D2E/DX2                !
 ! D43   D(10,6,47,7)            0.1836         estimate D2E/DX2                !
 ! D44   D(10,6,47,52)        -179.6086         estimate D2E/DX2                !
 ! D45   D(13,7,8,9)           179.8527         estimate D2E/DX2                !
 ! D46   D(13,7,8,14)           -0.1654         estimate D2E/DX2                !
 ! D47   D(47,7,8,9)             0.1769         estimate D2E/DX2                !
 ! D48   D(47,7,8,14)         -179.8412         estimate D2E/DX2                !
 ! D49   D(8,7,47,6)            -0.2903         estimate D2E/DX2                !
 ! D50   D(8,7,47,52)          179.4668         estimate D2E/DX2                !
 ! D51   D(13,7,47,6)         -179.9789         estimate D2E/DX2                !
 ! D52   D(13,7,47,52)          -0.2218         estimate D2E/DX2                !
 ! D53   D(7,8,9,10)             0.0524         estimate D2E/DX2                !
 ! D54   D(7,8,9,15)          -179.9842         estimate D2E/DX2                !
 ! D55   D(14,8,9,10)         -179.9291         estimate D2E/DX2                !
 ! D56   D(14,8,9,15)            0.0343         estimate D2E/DX2                !
 ! D57   D(8,9,10,6)            -0.1496         estimate D2E/DX2                !
 ! D58   D(8,9,10,55)          179.9212         estimate D2E/DX2                !
 ! D59   D(15,9,10,6)          179.8865         estimate D2E/DX2                !
 ! D60   D(15,9,10,55)          -0.0427         estimate D2E/DX2                !
 ! D61   D(6,10,55,56)          -0.1194         estimate D2E/DX2                !
 ! D62   D(6,10,55,62)         179.9056         estimate D2E/DX2                !
 ! D63   D(9,10,55,56)         179.8091         estimate D2E/DX2                !
 ! D64   D(9,10,55,62)          -0.166          estimate D2E/DX2                !
 ! D65   D(21,16,20,19)       -179.5238         estimate D2E/DX2                !
 ! D66   D(21,16,20,58)          0.4082         estimate D2E/DX2                !
 ! D67   D(50,16,20,19)          0.014          estimate D2E/DX2                !
 ! D68   D(50,16,20,58)        179.946          estimate D2E/DX2                !
 ! D69   D(20,16,21,25)         -0.4955         estimate D2E/DX2                !
 ! D70   D(20,16,21,48)        179.732          estimate D2E/DX2                !
 ! D71   D(50,16,21,25)        179.9402         estimate D2E/DX2                !
 ! D72   D(50,16,21,48)          0.1677         estimate D2E/DX2                !
 ! D73   D(20,16,50,17)          0.1648         estimate D2E/DX2                !
 ! D74   D(20,16,50,52)       -179.7675         estimate D2E/DX2                !
 ! D75   D(21,16,50,17)        179.7169         estimate D2E/DX2                !
 ! D76   D(21,16,50,52)         -0.2155         estimate D2E/DX2                !
 ! D77   D(26,17,18,19)        179.8799         estimate D2E/DX2                !
 ! D78   D(26,17,18,27)         -0.15           estimate D2E/DX2                !
 ! D79   D(50,17,18,19)          0.1815         estimate D2E/DX2                !
 ! D80   D(50,17,18,27)       -179.8484         estimate D2E/DX2                !
 ! D81   D(18,17,50,16)         -0.2629         estimate D2E/DX2                !
 ! D82   D(18,17,50,52)        179.6581         estimate D2E/DX2                !
 ! D83   D(26,17,50,16)       -179.9732         estimate D2E/DX2                !
 ! D84   D(26,17,50,52)         -0.0523         estimate D2E/DX2                !
 ! D85   D(17,18,19,20)          0.0072         estimate D2E/DX2                !
 ! D86   D(17,18,19,28)       -179.9996         estimate D2E/DX2                !
 ! D87   D(27,18,19,20)       -179.9622         estimate D2E/DX2                !
 ! D88   D(27,18,19,28)          0.031          estimate D2E/DX2                !
 ! D89   D(18,19,20,16)         -0.0974         estimate D2E/DX2                !
 ! D90   D(18,19,20,58)        179.9746         estimate D2E/DX2                !
 ! D91   D(28,19,20,16)        179.9092         estimate D2E/DX2                !
 ! D92   D(28,19,20,58)         -0.0187         estimate D2E/DX2                !
 ! D93   D(16,20,58,57)         -0.0996         estimate D2E/DX2                !
 ! D94   D(16,20,58,63)        179.9239         estimate D2E/DX2                !
 ! D95   D(19,20,58,57)        179.8275         estimate D2E/DX2                !
 ! D96   D(19,20,58,63)         -0.1489         estimate D2E/DX2                !
 ! D97   D(16,21,25,24)       -179.8158         estimate D2E/DX2                !
 ! D98   D(16,21,25,57)          0.2656         estimate D2E/DX2                !
 ! D99   D(48,21,25,24)         -0.057          estimate D2E/DX2                !
 ! D100  D(48,21,25,57)       -179.9756         estimate D2E/DX2                !
 ! D101  D(16,21,48,22)       -179.956          estimate D2E/DX2                !
 ! D102  D(16,21,48,52)         -0.0318         estimate D2E/DX2                !
 ! D103  D(25,21,48,22)          0.278          estimate D2E/DX2                !
 ! D104  D(25,21,48,52)       -179.7978         estimate D2E/DX2                !
 ! D105  D(29,22,23,24)        179.8586         estimate D2E/DX2                !
 ! D106  D(29,22,23,30)         -0.2174         estimate D2E/DX2                !
 ! D107  D(48,22,23,24)          0.1916         estimate D2E/DX2                !
 ! D108  D(48,22,23,30)       -179.8844         estimate D2E/DX2                !
 ! D109  D(23,22,48,21)         -0.3445         estimate D2E/DX2                !
 ! D110  D(23,22,48,52)        179.7441         estimate D2E/DX2                !
 ! D111  D(29,22,48,21)        179.9756         estimate D2E/DX2                !
 ! D112  D(29,22,48,52)          0.0643         estimate D2E/DX2                !
 ! D113  D(22,23,24,25)          0.0398         estimate D2E/DX2                !
 ! D114  D(22,23,24,31)       -179.9932         estimate D2E/DX2                !
 ! D115  D(30,23,24,25)       -179.8824         estimate D2E/DX2                !
 ! D116  D(30,23,24,31)          0.0846         estimate D2E/DX2                !
 ! D117  D(23,24,25,21)         -0.1008         estimate D2E/DX2                !
 ! D118  D(23,24,25,57)        179.813          estimate D2E/DX2                !
 ! D119  D(31,24,25,21)        179.9318         estimate D2E/DX2                !
 ! D120  D(31,24,25,57)         -0.1544         estimate D2E/DX2                !
 ! D121  D(21,25,57,58)          0.0443         estimate D2E/DX2                !
 ! D122  D(21,25,57,64)        179.9582         estimate D2E/DX2                !
 ! D123  D(24,25,57,58)       -179.8686         estimate D2E/DX2                !
 ! D124  D(24,25,57,64)          0.0454         estimate D2E/DX2                !
 ! D125  D(37,32,36,35)       -179.6209         estimate D2E/DX2                !
 ! D126  D(37,32,36,53)          0.3732         estimate D2E/DX2                !
 ! D127  D(46,32,36,35)          0.0734         estimate D2E/DX2                !
 ! D128  D(46,32,36,53)       -179.9324         estimate D2E/DX2                !
 ! D129  D(36,32,37,41)         -0.5035         estimate D2E/DX2                !
 ! D130  D(36,32,37,51)        179.8032         estimate D2E/DX2                !
 ! D131  D(46,32,37,41)        179.7869         estimate D2E/DX2                !
 ! D132  D(46,32,37,51)          0.0935         estimate D2E/DX2                !
 ! D133  D(36,32,46,33)          0.1281         estimate D2E/DX2                !
 ! D134  D(36,32,46,52)        179.8633         estimate D2E/DX2                !
 ! D135  D(37,32,46,33)        179.8317         estimate D2E/DX2                !
 ! D136  D(37,32,46,52)         -0.4331         estimate D2E/DX2                !
 ! D137  D(42,33,34,35)        179.9809         estimate D2E/DX2                !
 ! D138  D(42,33,34,65)         -0.0011         estimate D2E/DX2                !
 ! D139  D(46,33,34,35)          0.2526         estimate D2E/DX2                !
 ! D140  D(46,33,34,65)       -179.7294         estimate D2E/DX2                !
 ! D141  D(34,33,46,32)         -0.2969         estimate D2E/DX2                !
 ! D142  D(34,33,46,52)       -179.9862         estimate D2E/DX2                !
 ! D143  D(42,33,46,32)        179.9664         estimate D2E/DX2                !
 ! D144  D(42,33,46,52)          0.2771         estimate D2E/DX2                !
 ! D145  D(33,34,35,36)         -0.0354         estimate D2E/DX2                !
 ! D146  D(33,34,35,43)        179.9172         estimate D2E/DX2                !
 ! D147  D(65,34,35,36)        179.946          estimate D2E/DX2                !
 ! D148  D(65,34,35,43)         -0.1014         estimate D2E/DX2                !
 ! D149  D(34,35,36,32)         -0.1149         estimate D2E/DX2                !
 ! D150  D(34,35,36,53)        179.8913         estimate D2E/DX2                !
 ! D151  D(43,35,36,32)        179.932          estimate D2E/DX2                !
 ! D152  D(43,35,36,53)         -0.0618         estimate D2E/DX2                !
 ! D153  D(32,36,53,54)         -0.0493         estimate D2E/DX2                !
 ! D154  D(32,36,53,60)        179.919          estimate D2E/DX2                !
 ! D155  D(35,36,53,54)        179.9444         estimate D2E/DX2                !
 ! D156  D(35,36,53,60)         -0.0873         estimate D2E/DX2                !
 ! D157  D(32,37,41,40)       -179.7051         estimate D2E/DX2                !
 ! D158  D(32,37,41,54)          0.2988         estimate D2E/DX2                !
 ! D159  D(51,37,41,40)         -0.0279         estimate D2E/DX2                !
 ! D160  D(51,37,41,54)        179.976          estimate D2E/DX2                !
 ! D161  D(32,37,51,38)        179.9933         estimate D2E/DX2                !
 ! D162  D(32,37,51,52)          0.2961         estimate D2E/DX2                !
 ! D163  D(41,37,51,38)          0.3064         estimate D2E/DX2                !
 ! D164  D(41,37,51,52)       -179.3908         estimate D2E/DX2                !
 ! D165  D(44,38,39,40)        179.8821         estimate D2E/DX2                !
 ! D166  D(44,38,39,66)         -0.162          estimate D2E/DX2                !
 ! D167  D(51,38,39,40)          0.2046         estimate D2E/DX2                !
 ! D168  D(51,38,39,66)       -179.8396         estimate D2E/DX2                !
 ! D169  D(39,38,51,37)         -0.3989         estimate D2E/DX2                !
 ! D170  D(39,38,51,52)        179.246          estimate D2E/DX2                !
 ! D171  D(44,38,51,37)        179.9137         estimate D2E/DX2                !
 ! D172  D(44,38,51,52)         -0.4414         estimate D2E/DX2                !
 ! D173  D(38,39,40,41)          0.0894         estimate D2E/DX2                !
 ! D174  D(38,39,40,45)       -179.9782         estimate D2E/DX2                !
 ! D175  D(66,39,40,41)       -179.865          estimate D2E/DX2                !
 ! D176  D(66,39,40,45)          0.0674         estimate D2E/DX2                !
 ! D177  D(39,40,41,37)         -0.169          estimate D2E/DX2                !
 ! D178  D(39,40,41,54)        179.8269         estimate D2E/DX2                !
 ! D179  D(45,40,41,37)        179.898          estimate D2E/DX2                !
 ! D180  D(45,40,41,54)         -0.1061         estimate D2E/DX2                !
 ! D181  D(37,41,54,53)          0.0258         estimate D2E/DX2                !
 ! D182  D(37,41,54,59)        179.9615         estimate D2E/DX2                !
 ! D183  D(40,41,54,53)       -179.97           estimate D2E/DX2                !
 ! D184  D(40,41,54,59)         -0.0343         estimate D2E/DX2                !
 ! D185  D(32,46,52,47)         89.373          estimate D2E/DX2                !
 ! D186  D(32,46,52,48)       -174.3324         estimate D2E/DX2                !
 ! D187  D(32,46,52,50)        -95.073          estimate D2E/DX2                !
 ! D188  D(32,46,52,51)          0.4456         estimate D2E/DX2                !
 ! D189  D(33,46,52,47)        -90.9233         estimate D2E/DX2                !
 ! D190  D(33,46,52,48)          5.3713         estimate D2E/DX2                !
 ! D191  D(33,46,52,50)         84.6307         estimate D2E/DX2                !
 ! D192  D(33,46,52,51)       -179.8508         estimate D2E/DX2                !
 ! D193  D(6,47,52,46)        -175.0173         estimate D2E/DX2                !
 ! D194  D(6,47,52,48)          88.8272         estimate D2E/DX2                !
 ! D195  D(6,47,52,49)          -0.0089         estimate D2E/DX2                !
 ! D196  D(6,47,52,51)         -95.6303         estimate D2E/DX2                !
 ! D197  D(7,47,52,46)           5.2154         estimate D2E/DX2                !
 ! D198  D(7,47,52,48)         -90.94           estimate D2E/DX2                !
 ! D199  D(7,47,52,49)        -179.7761         estimate D2E/DX2                !
 ! D200  D(7,47,52,51)          84.6024         estimate D2E/DX2                !
 ! D201  D(21,48,52,46)         88.6001         estimate D2E/DX2                !
 ! D202  D(21,48,52,47)       -175.1488         estimate D2E/DX2                !
 ! D203  D(21,48,52,49)        -95.8711         estimate D2E/DX2                !
 ! D204  D(21,48,52,50)         -0.0628         estimate D2E/DX2                !
 ! D205  D(22,48,52,46)        -91.4848         estimate D2E/DX2                !
 ! D206  D(22,48,52,47)          4.7663         estimate D2E/DX2                !
 ! D207  D(22,48,52,49)         84.044          estimate D2E/DX2                !
 ! D208  D(22,48,52,50)        179.8523         estimate D2E/DX2                !
 ! D209  D(1,49,52,47)           0.0788         estimate D2E/DX2                !
 ! D210  D(1,49,52,48)         -95.7267         estimate D2E/DX2                !
 ! D211  D(1,49,52,50)        -175.0026         estimate D2E/DX2                !
 ! D212  D(1,49,52,51)          89.0186         estimate D2E/DX2                !
 ! D213  D(2,49,52,47)         179.8554         estimate D2E/DX2                !
 ! D214  D(2,49,52,48)          84.05           estimate D2E/DX2                !
 ! D215  D(2,49,52,50)           4.7741         estimate D2E/DX2                !
 ! D216  D(2,49,52,51)         -91.2047         estimate D2E/DX2                !
 ! D217  D(16,50,52,46)        -95.5358         estimate D2E/DX2                !
 ! D218  D(16,50,52,48)          0.15           estimate D2E/DX2                !
 ! D219  D(16,50,52,49)         88.9853         estimate D2E/DX2                !
 ! D220  D(16,50,52,51)       -174.902          estimate D2E/DX2                !
 ! D221  D(17,50,52,46)         84.5399         estimate D2E/DX2                !
 ! D222  D(17,50,52,48)       -179.7743         estimate D2E/DX2                !
 ! D223  D(17,50,52,49)        -90.939          estimate D2E/DX2                !
 ! D224  D(17,50,52,51)          5.1738         estimate D2E/DX2                !
 ! D225  D(37,51,52,46)         -0.3974         estimate D2E/DX2                !
 ! D226  D(37,51,52,47)        -96.1385         estimate D2E/DX2                !
 ! D227  D(37,51,52,49)       -175.4266         estimate D2E/DX2                !
 ! D228  D(37,51,52,50)         88.3064         estimate D2E/DX2                !
 ! D229  D(38,51,52,46)        179.9413         estimate D2E/DX2                !
 ! D230  D(38,51,52,47)         84.2002         estimate D2E/DX2                !
 ! D231  D(38,51,52,49)          4.9122         estimate D2E/DX2                !
 ! D232  D(38,51,52,50)        -91.3548         estimate D2E/DX2                !
 ! D233  D(36,53,54,41)         -0.151          estimate D2E/DX2                !
 ! D234  D(36,53,54,59)        179.9147         estimate D2E/DX2                !
 ! D235  D(60,53,54,41)        179.8814         estimate D2E/DX2                !
 ! D236  D(60,53,54,59)         -0.0529         estimate D2E/DX2                !
 ! D237  D(10,55,56,5)          -0.1423         estimate D2E/DX2                !
 ! D238  D(10,55,56,61)        179.9552         estimate D2E/DX2                !
 ! D239  D(62,55,56,5)         179.8322         estimate D2E/DX2                !
 ! D240  D(62,55,56,61)         -0.0703         estimate D2E/DX2                !
 ! D241  D(25,57,58,20)         -0.1277         estimate D2E/DX2                !
 ! D242  D(25,57,58,63)        179.8482         estimate D2E/DX2                !
 ! D243  D(64,57,58,20)        179.9605         estimate D2E/DX2                !
 ! D244  D(64,57,58,63)         -0.0637         estimate D2E/DX2                !
 ! D245  D(3,67,68,69)          -5.8065         estimate D2E/DX2                !
 ! D246  D(3,67,68,70)         174.1935         estimate D2E/DX2                !
 ! D247  D(71,67,68,69)        174.1935         estimate D2E/DX2                !
 ! D248  D(71,67,68,70)         -5.8065         estimate D2E/DX2                !
 ! D249  D(3,67,71,72)         -59.9897         estimate D2E/DX2                !
 ! D250  D(3,67,71,73)          60.0103         estimate D2E/DX2                !
 ! D251  D(3,67,71,74)        -179.9897         estimate D2E/DX2                !
 ! D252  D(68,67,71,72)        120.0103         estimate D2E/DX2                !
 ! D253  D(68,67,71,73)       -119.9897         estimate D2E/DX2                !
 ! D254  D(68,67,71,74)          0.0103         estimate D2E/DX2                !
 --------------------------------------------------------------------------------
 Trust Radius=3.00D-01 FncErr=5.00D-06 GrdErr=5.00D-06 EigMax=2.50D+02 EigMin=1.00D-04
 Number of steps in this run=    444 maximum allowed number of steps=    444.
 GradGradGradGradGradGradGradGradGradGradGradGradGradGradGradGradGradGrad

 Leave Link  103 at Mon Dec 18 15:03:34 2023, MaxMem=  2831155200 cpu:               0.1 elap:               0.0
 (Enter /opt/software/packages/g16/l202.exe)
 Symmetry turned off by external request.
 Stoichiometry    C39H28N6Ru
                          Input orientation:                          
 ---------------------------------------------------------------------
 Center     Atomic      Atomic             Coordinates (Angstroms)
 Number     Number       Type             X           Y           Z
 ---------------------------------------------------------------------
      1          6           0        2.343939   -1.852710   -0.060565
      2          6           0        1.093634   -2.234389   -1.975796
      3          6           0        2.012747   -3.194002   -2.420451
      4          6           0        3.127340   -3.485357   -1.656477
      5          6           0        3.318625   -2.807054   -0.435009
      6          6           0        2.479417   -1.130041    1.160100
      7          6           0        1.596194    0.464117    2.593672
      8          6           0        2.656288    0.285832    3.492524
      9          6           0        3.653106   -0.628911    3.208650
     10          6           0        3.584037   -1.369705    2.010597
     11          1           0        0.208354   -1.990127   -2.567669
     12          1           0        3.857208   -4.229062   -1.982582
     13          1           0        0.798227    1.180703    2.802333
     14          1           0        2.676410    0.877505    4.408242
     15          1           0        4.488689   -0.785143    3.893951
     16          6           0       -2.433113   -1.199537   -1.156716
     17          6           0       -1.597847    0.425350   -2.584844
     18          6           0       -2.653880    0.220819   -3.482862
     19          6           0       -3.623933   -0.722823   -3.201185
     20          6           0       -3.531640   -1.466869   -2.006782
     21          6           0       -2.275181   -1.923284    0.060620
     22          6           0       -1.012608   -2.276912    1.973170
     23          6           0       -1.903571   -3.264116    2.414799
     24          6           0       -3.010063   -3.584201    1.650572
     25          6           0       -3.221908   -2.906690    0.431966
     26          1           0       -0.820851    1.165314   -2.791351
     27          1           0       -2.692213    0.815521   -4.396037
     28          1           0       -4.456041   -0.899777   -3.885673
     29          1           0       -0.134246   -2.009525    2.565385
     30          1           0       -1.705810   -3.767841    3.361542
     31          1           0       -3.718073   -4.349754    1.974308
     32          6           0       -0.582151    2.692031    0.464567
     33          6           0       -2.019844    1.422489    1.765853
     34          6           0       -2.645633    2.570961    2.297396
     35          6           0       -2.193633    3.811456    1.868194
     36          6           0       -1.143228    3.900996    0.932869
     37          6           0        0.486811    2.709939   -0.474597
     38          6           0        1.982372    1.489666   -1.757857
     39          6           0        2.557287    2.658213   -2.302817
     40          6           0        2.048098    3.882493   -1.891470
     41          6           0        0.993230    3.936704   -0.958418
     42          1           0       -2.347886    0.426915    2.079856
     43          1           0       -2.649965    4.727316    2.252261
     44          1           0        2.355215    0.506049   -2.058910
     45          1           0        2.462720    4.812839   -2.287734
     46          7           0       -1.023130    1.471556    0.884722
     47          7           0        1.501081   -0.225031    1.454737
     48          7           0       -1.188662   -1.615584    0.827359
     49          7           0        1.249634   -1.573128   -0.826934
     50          7           0       -1.481728   -0.265658   -1.448919
     51          7           0        0.982019    1.505191   -0.879590
     52         44           0        0.007687   -0.118869    0.003084
     53          6           0       -0.614210    5.133992    0.432392
     54          6           0        0.408252    5.151059   -0.474800
     55          6           0        4.557175   -2.340734    1.611864
     56          6           0        4.430648   -3.028927    0.438452
     57          6           0       -4.327997   -3.156839   -0.441385
     58          6           0       -4.475921   -2.467361   -1.611503
     59          1           0        0.801162    6.098742   -0.849196
     60          1           0       -1.049820    6.067803    0.794273
     61          1           0        5.179171   -3.767121    0.143302
     62          1           0        5.408168   -2.519663    2.272343
     63          1           0       -5.322228   -2.667756   -2.271832
     64          1           0       -5.054496   -3.917719   -0.148821
     65          1           0       -3.439310    2.459069    3.006238
     66          1           0        3.358320    2.572963   -3.007074
     67          6           0        1.754998   -3.907577   -3.760591
     68          6           0        2.626696   -4.840090   -4.215705
     69          1           0        3.544028   -5.019572   -3.694946
     70          1           0        2.396827   -5.398794   -5.098830
     71          6           0        0.502384   -3.560286   -4.586392
     72          1           0       -0.374260   -3.767549   -4.008952
     73          1           0        0.522068   -2.522141   -4.844789
     74          1           0        0.489022   -4.149867   -5.479205
 ---------------------------------------------------------------------
 Rotational constants (GHZ):           0.0868447           0.0757721           0.0629535
 Leave Link  202 at Mon Dec 18 15:03:34 2023, MaxMem=  2831155200 cpu:               0.0 elap:               0.0
 (Enter /opt/software/packages/g16/l301.exe)
 Standard basis: def2SVP (5D, 7F)
 Ernie: Thresh=  0.10000D-02 Tol=  0.10000D-05 Strict=F.
   801 basis functions,  1386 primitive gaussians,   851 cartesian basis functions
   159 alpha electrons      159 beta electrons
       nuclear repulsion energy      6014.3318934214 Hartrees.
 IExCor= 4134 DFT=T Ex+Corr=M06L ExCW=0 ScaHFX=  0.000000
 ScaDFX=  1.000000  1.000000  1.000000  1.000000 ScalE2=  1.000000  1.000000
 IRadAn=      5 IRanWt=     -1 IRanGd=            0 ICorTp=0 IEmpDi=  4
 NAtoms=   74 NActive=   74 NUniq=   74 SFac= 1.00D+00 NAtFMM=   60 NAOKFM=T Big=T
 Integral buffers will be    131072 words long.
 Raffenetti 2 integral format.
 Two-electron integral symmetry is turned off.
 ------------------------------------------------------------------------------
 Polarizable Continuum Model (PCM)
 =================================
 Model                : PCM.
 Atomic radii         : SMD-Coulomb.
 Polarization charges : Total charges.
 Charge compensation  : None.
 Solution method      : On-the-fly selection.
 Cavity type          : VdW (van der Waals Surface) (Alpha=1.000).
 Cavity algorithm     : GePol (No added spheres)
                        Default sphere list used, NSphG=   74.
                        Lebedev-Laikov grids with approx.  5.0 points / Ang**2.
                        Smoothing algorithm: York/Karplus (Gamma=1.0000).
                        Polarization charges: spherical gaussians, with
                                              point-specific exponents (IZeta= 3).
                        Self-potential: point-specific (ISelfS= 7).
                        Self-field    : sphere-specific E.n sum rule (ISelfD= 2).
 1st derivatives      : Analytical E(r).r(x)/FMM algorithm (CHGder, D1EAlg=3).
                        Cavity 1st derivative terms included.
 Solvent              : n,n-DiMethylFormamide, Eps=  37.219000 Eps(inf)=   2.046330
 ------------------------------------------------------------------------------
 GePol: Number of generator spheres                  =      74
 GePol: Total number of spheres                      =      74
 GePol: Number of exposed spheres                    =      73 ( 98.65%)
 GePol: Number of points                             =    5394
 GePol: Average weight of points                     =       0.11
 GePol: Minimum weight of points                     =   0.62D-10
 GePol: Maximum weight of points                     =    0.17992
 GePol: Number of points with low weight             =     340
 GePol: Fraction of low-weight points (<1% of avg)   =       6.30%
 GePol: Cavity surface area                          =    566.722 Ang**2
 GePol: Cavity volume                                =    594.261 Ang**3
 ------------------------------------------------------------------------------
 Atomic radii for non-electrostatic terms: SMD-CDS.
 ------------------------------------------------------------------------------
 PCM non-electrostatic energy =        -0.0096154874 Hartrees.
 Nuclear repulsion after PCM non-electrostatic terms =     6014.3222779340 Hartrees.
 Leave Link  301 at Mon Dec 18 15:03:34 2023, MaxMem=  2831155200 cpu:               0.1 elap:               0.1
 (Enter /opt/software/packages/g16/l302.exe)
 NPDir=0 NMtPBC=     1 NCelOv=     1 NCel=       1 NClECP=     1 NCelD=      1
         NCelK=      1 NCelE2=     1 NClLst=     1 CellRange=     0.0.
 One-electron integrals computed using PRISM.
   1 Symmetry operations used in ECPInt.
 ECPInt:  NShTT=   66795 NPrTT=  245334 LenC2=   56056 LenP2D=  131105.
 LDataN:  DoStor=T MaxTD1= 7 Len=  274
 NBasis=   801 RedAO= T EigKep=  1.50D-04  NBF=   801
 NBsUse=   801 1.00D-06 EigRej= -1.00D+00 NBFU=   801
 Precomputing XC quadrature grid using
 IXCGrd= 4 IRadAn=           5 IRanWt=          -1 IRanGd=           0 AccXCQ= 0.00D+00.
 Defaulting to unpruned grid for atomic number  44.
 Generated NRdTot=       0 NPtTot=           0 NUsed=           0 NTot=          32
 NSgBfM=   834   828   834   834   834 MxSgAt=    74 MxSgA2=    74.
 Leave Link  302 at Mon Dec 18 15:03:36 2023, MaxMem=  2831155200 cpu:              14.1 elap:               1.6
 (Enter /opt/software/packages/g16/l303.exe)
 DipDrv:  MaxL=1.
 Leave Link  303 at Mon Dec 18 15:03:36 2023, MaxMem=  2831155200 cpu:               0.3 elap:               0.1
 (Enter /opt/software/packages/g16/l401.exe)
 ExpMin= 3.92D-02 ExpMax= 1.71D+03 ExpMxC= 2.58D+02 IAcc=3 IRadAn=         5 AccDes= 0.00D+00
 Harris functional with IExCor= 1009 and IRadAn=       5 diagonalized for initial guess.
 HarFok:  IExCor= 1009 AccDes= 0.00D+00 IRadAn=         5 IDoV= 1 UseB2=F ITyADJ=14
 ICtDFT=  3500011 ScaDFX=  1.000000  1.000000  1.000000  1.000000
 Defaulting to unpruned grid for atomic number  44.
 FoFCou: FMM=F IPFlag=           0 FMFlag=      100000 FMFlg1=        2001
         NFxFlg=           0 DoJE=T BraDBF=F KetDBF=T FulRan=T
         wScrn=  0.000000 ICntrl=       500 IOpCl=  0 I1Cent=   200000004 NGrid=           0
         NMat0=    1 NMatS0=      1 NMatT0=    0 NMatD0=    1 NMtDS0=    0 NMtDT0=    0
 Symmetry not used in FoFCou.
 Harris En= -1923.22471127604    
 JPrj=0 DoOrth=F DoCkMO=F.
 Leave Link  401 at Mon Dec 18 15:03:42 2023, MaxMem=  2831155200 cpu:              83.6 elap:               5.8
 (Enter /opt/software/packages/g16/l502.exe)
 Two-electron integral symmetry not used.
 Closed shell SCF:
 Using DIIS extrapolation, IDIIS=  1040.
 NGot=  2831155200 LenX=  2829684469 LenY=  2828959417
 Requested convergence on RMS density matrix=1.00D-08 within 128 cycles.
 Requested convergence on MAX density matrix=1.00D-06.
 Requested convergence on             energy=1.00D-06.
 No special actions if energy rises.
 Fock matrices will be formed incrementally for  20 cycles.

 Cycle   1  Pass 1  IDiag  1:
 FoFJK:  IHMeth= 1 ICntrl=     500 DoSepK=F KAlg= 0 I1Cent=           0 FoldK=F
 IRaf= 970000000 NMat=       1 IRICut=       1 DoRegI=T DoRafI=F ISym2E= 0 IDoP0=0 IntGTp=1.
 FoFCou: FMM=T IPFlag=           0 FMFlag=      100000 FMFlg1=        2001
         NFxFlg=           0 DoJE=T BraDBF=F KetDBF=F FulRan=T
         wScrn=  0.000000 ICntrl=       500 IOpCl=  0 I1Cent=           0 NGrid=           0
         NMat0=    1 NMatS0=      1 NMatT0=    0 NMatD0=    1 NMtDS0=    0 NMtDT0=    0
 Symmetry not used in FoFCou.
 FMM levels:  10  Number of levels for PrismC:   9
 Defaulting to unpruned grid for atomic number  44.
 Defaulting to unpruned grid for atomic number  44.
 Defaulting to unpruned grid for atomic number  44.
 Defaulting to unpruned grid for atomic number  44.
 Defaulting to unpruned grid for atomic number  44.
 Defaulting to unpruned grid for atomic number  44.
 Defaulting to unpruned grid for atomic number  44.
 Defaulting to unpruned grid for atomic number  44.
 Defaulting to unpruned grid for atomic number  44.
 Defaulting to unpruned grid for atomic number  44.
 Defaulting to unpruned grid for atomic number  44.
 Defaulting to unpruned grid for atomic number  44.
 Defaulting to unpruned grid for atomic number  44.
 Defaulting to unpruned grid for atomic number  44.
 Defaulting to unpruned grid for atomic number  44.
 Defaulting to unpruned grid for atomic number  44.
 Inv3:  Mode=1 IEnd=    87285708.
 Iteration    1 A*A^-1 deviation from unit magnitude is 6.88D-15 for   5387.
 Iteration    1 A*A^-1 deviation from orthogonality  is 5.45D-15 for   5389   4597.
 Iteration    1 A^-1*A deviation from unit magnitude is 6.88D-15 for   5382.
 Iteration    1 A^-1*A deviation from orthogonality  is 6.36D-14 for   1942   1892.
 E= -1920.92488923427    
 DIIS: error= 8.23D-02 at cycle   1 NSaved=   1.
 NSaved= 1 IEnMin= 1 EnMin= -1920.92488923427     IErMin= 1 ErrMin= 8.23D-02
 ErrMax= 8.23D-02  0.00D+00 EMaxC= 1.00D-01 BMatC= 3.57D+00 BMatP= 3.57D+00
 IDIUse=3 WtCom= 1.77D-01 WtEn= 8.23D-01
 Coeff-Com:  0.100D+01
 Coeff-En:   0.100D+01
 Coeff:      0.100D+01
 Gap=     0.214 Goal=   None    Shift=    0.000
 GapD=    0.214 DampG=1.000 DampE=0.250 DampFc=0.2500 IDamp=-1.
 Damping current iteration by 2.50D-01
 RMSDP=2.58D-02 MaxDP=4.80D+00              OVMax= 8.95D-01

 Cycle   2  Pass 1  IDiag  1:
 RMSU=  6.45D-03    CP:  9.98D-01
 E= -1922.07819892761     Delta-E=       -1.153309693334 Rises=F Damp=T
 DIIS: error= 1.74D-02 at cycle   2 NSaved=   2.
 NSaved= 2 IEnMin= 2 EnMin= -1922.07819892761     IErMin= 2 ErrMin= 1.74D-02
 ErrMax= 1.74D-02  0.00D+00 EMaxC= 1.00D-01 BMatC= 4.29D-01 BMatP= 3.57D+00
 IDIUse=3 WtCom= 8.26D-01 WtEn= 1.74D-01
 Coeff-Com:  0.413D-02 0.996D+00
 Coeff-En:   0.319D+00 0.681D+00
 Coeff:      0.590D-01 0.941D+00
 Gap=     0.087 Goal=   None    Shift=    0.000
 RMSDP=7.09D-03 MaxDP=1.13D+00 DE=-1.15D+00 OVMax= 8.05D-01

 Cycle   3  Pass 1  IDiag  1:
 RMSU=  3.85D-03    CP:  9.06D-01  9.55D-02
 E= -1922.31104519681     Delta-E=       -0.232846269207 Rises=F Damp=F
 DIIS: error= 6.71D-02 at cycle   3 NSaved=   3.
 NSaved= 3 IEnMin= 3 EnMin= -1922.31104519681     IErMin= 2 ErrMin= 1.74D-02
 ErrMax= 6.71D-02  0.00D+00 EMaxC= 1.00D-01 BMatC= 2.68D+00 BMatP= 4.29D-01
 IDIUse=2 WtCom= 0.00D+00 WtEn= 1.00D+00
 EnCoef did   100 forward-backward iterations
 Coeff-En:   0.410D+00 0.175D-01 0.572D+00
 Coeff:      0.410D+00 0.175D-01 0.572D+00
 Gap=     0.397 Goal=   None    Shift=    0.000
 RMSDP=4.85D-03 MaxDP=2.52D-01 DE=-2.33D-01 OVMax= 8.19D-01

 Cycle   4  Pass 1  IDiag  1:
 RMSU=  4.43D-03    CP:  9.10D-01  2.01D-01  5.23D-01
 E= -1914.42200064463     Delta-E=        7.889044552187 Rises=F Damp=F
 DIIS: error= 7.48D-02 at cycle   4 NSaved=   4.
 NSaved= 4 IEnMin= 3 EnMin= -1922.31104519681     IErMin= 2 ErrMin= 1.74D-02
 ErrMax= 7.48D-02  0.00D+00 EMaxC= 1.00D-01 BMatC= 7.67D+00 BMatP= 4.29D-01
 IDIUse=2 WtCom= 0.00D+00 WtEn= 1.00D+00
 EnCoef did   100 forward-backward iterations
 Coeff-En:   0.426D+00 0.536D-02 0.419D+00 0.150D+00
 Coeff:      0.426D+00 0.536D-02 0.419D+00 0.150D+00
 Gap=    -0.028 Goal=   None    Shift=    0.000
 RMSDP=3.34D-03 MaxDP=5.70D-01 DE= 7.89D+00 OVMax= 8.48D-01

 Cycle   5  Pass 1  IDiag  1:
 RMSU=  1.60D-03    CP:  9.12D-01  1.01D-01  6.43D-01  3.62D-01
 E= -1924.40745976739     Delta-E=       -9.985459122767 Rises=F Damp=F
 DIIS: error= 2.36D-02 at cycle   5 NSaved=   5.
 NSaved= 5 IEnMin= 5 EnMin= -1924.40745976739     IErMin= 2 ErrMin= 1.74D-02
 ErrMax= 2.36D-02  0.00D+00 EMaxC= 1.00D-01 BMatC= 4.81D-01 BMatP= 4.29D-01
 IDIUse=2 WtCom= 0.00D+00 WtEn= 1.00D+00
 EnCoef did     2 forward-backward iterations
 Coeff-En:   0.172D+00 0.000D+00 0.138D+00 0.000D+00 0.690D+00
 Coeff:      0.172D+00 0.000D+00 0.138D+00 0.000D+00 0.690D+00
 Gap=     0.126 Goal=   None    Shift=    0.000
 RMSDP=2.04D-03 MaxDP=1.32D-01 DE=-9.99D+00 OVMax= 3.73D-01

 Cycle   6  Pass 1  IDiag  1:
 RMSU=  1.13D-03    CP:  9.22D-01  3.71D-02  6.62D-01  5.10D-02  4.40D-01
 E= -1924.30895945546     Delta-E=        0.098500311937 Rises=F Damp=F
 DIIS: error= 2.50D-02 at cycle   6 NSaved=   6.
 NSaved= 6 IEnMin= 5 EnMin= -1924.40745976739     IErMin= 2 ErrMin= 1.74D-02
 ErrMax= 2.50D-02  0.00D+00 EMaxC= 1.00D-01 BMatC= 5.98D-01 BMatP= 4.29D-01
 IDIUse=2 WtCom= 0.00D+00 WtEn= 1.00D+00
 Coeff-En:   0.000D+00 0.000D+00 0.000D+00 0.000D+00 0.528D+00 0.472D+00
 Coeff:      0.000D+00 0.000D+00 0.000D+00 0.000D+00 0.528D+00 0.472D+00
 Gap=     0.091 Goal=   None    Shift=    0.000
 RMSDP=1.17D-03 MaxDP=1.44D-01 DE= 9.85D-02 OVMax= 3.21D-01

 Cycle   7  Pass 1  IDiag  1:
 RMSU=  3.57D-04    CP:  9.18D-01  7.04D-02  7.10D-01  1.95D-01  7.17D-01
                    CP:  3.40D-01
 E= -1924.88442235683     Delta-E=       -0.575462901373 Rises=F Damp=F
 DIIS: error= 9.97D-03 at cycle   7 NSaved=   7.
 NSaved= 7 IEnMin= 7 EnMin= -1924.88442235683     IErMin= 7 ErrMin= 9.97D-03
 ErrMax= 9.97D-03  0.00D+00 EMaxC= 1.00D-01 BMatC= 5.32D-02 BMatP= 4.29D-01
 IDIUse=3 WtCom= 9.00D-01 WtEn= 9.97D-02
 Coeff-Com: -0.198D-01 0.998D-02-0.656D-01-0.135D-01 0.249D+00 0.282D+00
 Coeff-Com:  0.558D+00
 Coeff-En:   0.000D+00 0.000D+00 0.000D+00 0.000D+00 0.000D+00 0.523D-01
 Coeff-En:   0.948D+00
 Coeff:     -0.178D-01 0.898D-02-0.591D-01-0.121D-01 0.224D+00 0.259D+00
 Coeff:      0.597D+00
 Gap=     0.061 Goal=   None    Shift=    0.000
 RMSDP=4.51D-04 MaxDP=9.18D-02 DE=-5.75D-01 OVMax= 1.34D-01

 Cycle   8  Pass 1  IDiag  1:
 RMSU=  2.33D-04    CP:  9.18D-01  5.96D-02  6.58D-01  1.90D-01  7.35D-01
                    CP:  5.79D-01  5.08D-01
 E= -1924.91738569611     Delta-E=       -0.032963339278 Rises=F Damp=F
 DIIS: error= 5.38D-03 at cycle   8 NSaved=   8.
 NSaved= 8 IEnMin= 8 EnMin= -1924.91738569611     IErMin= 8 ErrMin= 5.38D-03
 ErrMax= 5.38D-03  0.00D+00 EMaxC= 1.00D-01 BMatC= 1.91D-02 BMatP= 5.32D-02
 IDIUse=3 WtCom= 9.46D-01 WtEn= 5.38D-02
 Coeff-Com: -0.150D-01 0.108D-01-0.177D-01-0.315D-02 0.420D-01 0.493D-01
 Coeff-Com:  0.387D+00 0.547D+00
 Coeff-En:   0.000D+00 0.000D+00 0.000D+00 0.000D+00 0.000D+00 0.000D+00
 Coeff-En:   0.343D+00 0.657D+00
 Coeff:     -0.142D-01 0.102D-01-0.168D-01-0.298D-02 0.397D-01 0.467D-01
 Coeff:      0.385D+00 0.553D+00
 Gap=     0.073 Goal=   None    Shift=    0.000
 RMSDP=1.88D-04 MaxDP=3.76D-02 DE=-3.30D-02 OVMax= 5.69D-02

 Cycle   9  Pass 1  IDiag  1:
 RMSU=  6.42D-05    CP:  9.17D-01  6.35D-02  6.78D-01  1.94D-01  7.39D-01
                    CP:  4.91D-01  6.69D-01  5.56D-01
 E= -1924.93544977485     Delta-E=       -0.018064078741 Rises=F Damp=F
 DIIS: error= 5.59D-04 at cycle   9 NSaved=   9.
 NSaved= 9 IEnMin= 9 EnMin= -1924.93544977485     IErMin= 9 ErrMin= 5.59D-04
 ErrMax= 5.59D-04  0.00D+00 EMaxC= 1.00D-01 BMatC= 6.06D-04 BMatP= 1.91D-02
 IDIUse=3 WtCom= 9.94D-01 WtEn= 5.59D-03
 Coeff-Com: -0.619D-02 0.353D-02-0.617D-02-0.732D-03 0.655D-02 0.419D-02
 Coeff-Com:  0.203D+00 0.350D+00 0.446D+00
 Coeff-En:   0.000D+00 0.000D+00 0.000D+00 0.000D+00 0.000D+00 0.000D+00
 Coeff-En:   0.000D+00 0.000D+00 0.100D+01
 Coeff:     -0.615D-02 0.351D-02-0.614D-02-0.728D-03 0.652D-02 0.416D-02
 Coeff:      0.202D+00 0.348D+00 0.449D+00
 Gap=     0.072 Goal=   None    Shift=    0.000
 RMSDP=4.02D-05 MaxDP=3.53D-03 DE=-1.81D-02 OVMax= 8.65D-03

 Cycle  10  Pass 1  IDiag  1:
 RMSU=  2.06D-05    CP:  9.18D-01  6.37D-02  6.77D-01  1.96D-01  7.41D-01
                    CP:  4.88D-01  6.79D-01  6.06D-01  5.26D-01
 E= -1924.93610103484     Delta-E=       -0.000651259996 Rises=F Damp=F
 DIIS: error= 1.57D-04 at cycle  10 NSaved=  10.
 NSaved=10 IEnMin=10 EnMin= -1924.93610103484     IErMin=10 ErrMin= 1.57D-04
 ErrMax= 1.57D-04  0.00D+00 EMaxC= 1.00D-01 BMatC= 3.96D-05 BMatP= 6.06D-04
 IDIUse=3 WtCom= 9.98D-01 WtEn= 1.57D-03
 Coeff-Com: -0.999D-03 0.911D-04-0.186D-02 0.528D-04-0.116D-03-0.297D-02
 Coeff-Com:  0.617D-01 0.104D+00 0.238D+00 0.602D+00
 Coeff-En:   0.000D+00 0.000D+00 0.000D+00 0.000D+00 0.000D+00 0.000D+00
 Coeff-En:   0.000D+00 0.000D+00 0.000D+00 0.100D+01
 Coeff:     -0.997D-03 0.909D-04-0.185D-02 0.528D-04-0.116D-03-0.297D-02
[...]
      5  -0.387468D-02  0.213352D-03  0.106608D-02 -0.329242D-03 -0.221215D-01
      6  -0.146975D-02  0.228569D-02 -0.128322D-02 -0.292646D-01 -0.135982D-01
      7   0.980157D-02  0.109876D-01  0.100030D-02 -0.323549D-02 -0.558142D-02
      8   0.225230D+00 -0.693776D-02 -0.195462D+00  0.965913D-01  0.959772D-01
      9   0.794964D-01 -0.163116D+00  0.903084D-01  0.276520D+00  0.193405D+00
     10  -0.640725D+00 -0.294726D+00 -0.878844D-01  0.302974D-01  0.964915D-02
     11  -0.487753D-02 -0.133397D-01  0.706707D-02  0.339754D-01  0.709905D-01
     12   0.178651D-01  0.336047D-01 -0.404999D-01 -0.115657D+00 -0.172063D-01
     13   0.408783D-01 -0.299937D-01  0.603194D-02  0.171553D-01  0.947497D-01
     14   0.196315D-04 -0.318148D-01 -0.676985D-01  0.766824D-02  0.713082D-01
     15  -0.142228D-01 -0.470705D-01  0.363562D-01  0.582903D-01  0.286917D-01
     16   0.301875D-01  0.883949D-02  0.494977D-01  0.137532D-01 -0.251569D-01
                 6             7             8             9            10 
      1  -0.192486D+04 -0.192486D+04 -0.192486D+04 -0.192486D+04 -0.192486D+04
      2   0.339935D+00 -0.148658D+00 -0.881920D+00  0.200567D+00  0.409074D+00
      3  -0.149885D+00 -0.494876D+00  0.456061D+00  0.326158D+00 -0.244465D+00
      4   0.519992D-01 -0.432255D-01 -0.129139D+00  0.151979D+00 -0.230577D-01
      5  -0.280389D-01  0.120329D-01  0.731038D-01 -0.171210D-01 -0.372834D-01
      6   0.123368D-01  0.398615D-01 -0.374708D-01 -0.280416D-01  0.215268D-01
      7  -0.436609D-02  0.315623D-02  0.110770D-01 -0.139562D-01  0.109974D-02
      8   0.166943D+00 -0.127994D+00 -0.289820D+00  0.408143D-01 -0.248406D+00
      9  -0.386314D-01 -0.218650D+00  0.245776D+00  0.118249D+00  0.535494D-01
     10   0.542961D-01  0.991265D-02 -0.132078D+00  0.129237D+00 -0.507526D-01
     11  -0.395596D-01 -0.615807D-01  0.782422D-01  0.748027D-01 -0.673614D-01
     12   0.370437D-01  0.159201D+00 -0.128717D+00 -0.158297D+00  0.545090D-01
     13  -0.239002D-01 -0.550365D-01  0.109121D+00  0.241318D-01 -0.514131D-01
     14   0.117238D+00 -0.557975D-01 -0.276041D+00  0.107586D+00  0.257042D+00
     15  -0.352187D-01 -0.116831D+00  0.127847D+00  0.114165D+00 -0.610122D-01
     16  -0.441103D-01  0.360498D-01  0.160434D+00 -0.776670D-01 -0.133842D+00
                11            12            13            14            15 
      1  -0.192486D+04 -0.192485D+04 -0.192485D+04 -0.192485D+04 -0.192485D+04
      2  -0.397895D+00  0.394531D+00 -0.108441D+01 -0.263087D+00 -0.587572D-01
      3   0.436346D-01 -0.256269D+00  0.783255D+00 -0.467784D+00  0.117676D+01
      4  -0.995974D-02  0.423941D-01 -0.131895D+00 -0.233941D+00  0.157297D+00
      5   0.348817D-01 -0.347074D-01  0.982826D-01  0.227592D-01  0.214894D-02
      6  -0.479818D-02  0.219363D-01 -0.691993D-01  0.455560D-01 -0.108569D+00
      7   0.171776D-02 -0.376539D-02  0.129305D-01  0.193409D-01 -0.136346D-01
      8   0.869112D-01 -0.583313D-01  0.307699D+00 -0.108306D+00 -0.124210D+00
      9  -0.600616D-01 -0.288602D-01  0.992356D-01  0.255957D+00 -0.168186D+00
     10  -0.148158D-01  0.857962D-02 -0.331437D-01 -0.273201D-01 -0.365242D-01
     11   0.715569D-01 -0.932126D-02  0.886095D-01 -0.217553D+00  0.227180D+00
     12  -0.952020D-01 -0.409337D-02 -0.901893D-01  0.462546D+00 -0.453102D+00
     13   0.545395D-01 -0.288388D-02  0.971898D-01 -0.198834D+00  0.130471D+00
     14  -0.102308D+00  0.870074D-01 -0.345568D+00  0.899239D-01  0.387709D+00
     15   0.111226D+00 -0.980456D-03  0.494299D-01 -0.451741D+00  0.321560D+00
     16   0.645222D-01 -0.427129D-01  0.189089D+00 -0.900472D-01 -0.304652D+00
                16            17            18            19            20 
      1  -0.192485D+04 -0.192485D+04 -0.192484D+04 -0.192483D+04 -0.192483D+04
      2   0.104654D+01 -0.146752D-01 -0.287922D+00 -0.800836D-01 -0.529058D-01
      3   0.117634D+01  0.165802D+00  0.277914D+00  0.140522D+00 -0.561106D-01
      4   0.507989D-01 -0.936836D+00 -0.109226D-01  0.333910D+00  0.220301D+00
      5  -0.944864D-01  0.308562D-02  0.294728D-01  0.869558D-02  0.852009D-02
      6  -0.106725D+00 -0.159531D-01 -0.283754D-01 -0.135638D-01  0.609292D-02
      7  -0.583786D-02  0.781834D-01  0.160993D-02 -0.349870D-01 -0.337138D-01
      8   0.466538D-01  0.465091D-01  0.753807D-01  0.129812D+00 -0.414700D-01
      9  -0.412469D-01 -0.468760D-01  0.286548D-01  0.337735D+00 -0.301818D-01
     10   0.772890D-01  0.938891D-01 -0.333200D-01 -0.549541D-01  0.458999D-01
     11   0.184499D+00  0.475991D-01 -0.246667D+00 -0.178503D+00 -0.216281D-01
     12  -0.284856D+00 -0.122895D+00 -0.385039D+00  0.229228D+00 -0.585533D-01
     13   0.783117D-03  0.150621D+00 -0.454005D-01  0.912113D-01 -0.901380D-01
     14   0.121541D+00 -0.485701D-01 -0.977361D-01 -0.149293D+00  0.176748D-01
     15   0.250412D-01  0.910004D-01  0.151174D-01 -0.252292D+00  0.258997D-01
     16  -0.584163D-01  0.640126D-01  0.682272D-01  0.256707D+00 -0.645895D-01
                21            22            23            24            25 
      1  -0.192482D+04 -0.192482D+04 -0.192482D+04 -0.192482D+04 -0.192482D+04
      2   0.161304D+00 -0.139246D+00  0.784609D-01 -0.689841D-01 -0.397114D+00
      3   0.292886D-01  0.459400D-01 -0.141207D-01 -0.791042D+00  0.277462D+00
      4   0.130822D-01  0.130669D+00 -0.304748D+00 -0.120293D+01 -0.149791D+00
      5  -0.193313D-01  0.157606D-01 -0.877889D-02  0.977386D-02  0.435524D-01
      6  -0.376675D-02 -0.512717D-02  0.949650D-03  0.886207D-01 -0.310896D-01
      7  -0.117873D-02 -0.144918D-01  0.351912D-01  0.142846D+00  0.200775D-01
      8  -0.321697D-02  0.842649D-01 -0.873291D-01 -0.404999D+00  0.238655D+00
      9  -0.870771D-01  0.293070D-01 -0.859706D-01 -0.581367D+00  0.258880D+00
     10   0.942446D-02 -0.807867D-01  0.100157D+00  0.377224D+00 -0.138646D+00
     11   0.774622D-01  0.379448D-01  0.766218D-01  0.270144D+00  0.198868D+00
     12   0.436201D-01  0.889112D-02 -0.117674D+00 -0.617486D+00 -0.328802D-01
     13  -0.241226D-02  0.217487D-01 -0.514844D-01 -0.374432D+00 -0.431545D-01
     14   0.767476D-01 -0.139330D+00  0.979312D-01  0.245081D+00 -0.222795D+00
     15   0.117688D-01  0.286820D-01  0.840812D-01  0.567563D+00  0.612271D-01
     16  -0.498157D-01  0.959438D-01 -0.143873D+00 -0.682271D+00  0.400905D-01
                26            27            28            29            30 
      1  -0.192482D+04 -0.192482D+04 -0.192482D+04 -0.192482D+04 -0.192482D+04
      2  -0.270283D+00  0.211471D+00 -0.156515D+00  0.283549D+00 -0.368112D-01
      3  -0.199222D+00  0.176223D+00  0.799185D-01 -0.100045D+00 -0.304092D+00
      4  -0.710134D-01  0.541006D+00 -0.494630D-01  0.104468D+00 -0.402774D+00
      5   0.296388D-01 -0.289217D-01  0.182460D-01 -0.285430D-01  0.950459D-02
      6   0.189064D-01 -0.261904D-01 -0.707646D-02  0.865856D-02  0.371378D-01
      7   0.529427D-02 -0.641619D-01  0.593184D-02 -0.103970D-01  0.500751D-01
      8  -0.109378D+00  0.152083D+00  0.582797D-01 -0.240551D-01 -0.451911D-01
      9  -0.161700D+00  0.327874D+00  0.921486D-01  0.143113D-01 -0.619746D-01
     10  -0.102220D+00 -0.367730D-01 -0.427658D-01 -0.433021D-01  0.772322D-01
     11   0.748489D-01 -0.232768D+00  0.173284D+00  0.491989D-01  0.115037D+00
     12  -0.375427D-01  0.430743D+00  0.994525D-01  0.971801D-01 -0.226788D+00
     13  -0.757948D-01  0.113552D+00  0.928919D-02 -0.162810D+00 -0.219767D+00
     14  -0.542697D-01 -0.112431D+00 -0.567994D-01  0.963646D-01  0.487058D-01
     15   0.440958D-01 -0.549537D+00  0.796475D-01 -0.182695D+00  0.201329D+00
     16  -0.180388D-01  0.446858D+00 -0.428496D-01 -0.230057D+00 -0.366347D+00
                31            32            33            34            35 
      1  -0.192481D+04 -0.192481D+04 -0.192481D+04 -0.192481D+04 -0.192481D+04
      2   0.121874D+00 -0.980947D-01  0.213246D+00  0.533539D-02  0.430351D-01
      3  -0.107890D+00  0.188037D+00 -0.356994D-01  0.159108D+00 -0.100792D+00
      4  -0.677427D-02  0.173663D+00 -0.383658D-01  0.250565D-01  0.103711D-01
      5  -0.149704D-01  0.131113D-01 -0.286906D-01  0.230966D-03 -0.527853D-02
      6   0.131159D-01 -0.234638D-01  0.554681D-02 -0.199315D-01  0.149379D-01
      7   0.101139D-02 -0.206570D-01  0.409041D-02 -0.303774D-02 -0.135667D-02
      8   0.208593D+00  0.272147D+00 -0.193740D+00  0.103984D+00  0.405393D-01
      9  -0.153707D+00  0.116334D+00 -0.223193D-02 -0.371559D-01  0.152753D+00
     10   0.718359D-01 -0.583402D-01  0.183792D-01  0.421021D-01  0.300571D-01
     11  -0.188714D-01  0.175967D+00  0.314967D-01 -0.816871D-01 -0.400788D-01
     12  -0.467858D-01  0.220548D+00  0.559081D-01 -0.764942D-01  0.143279D+00
     13   0.274755D-01  0.725004D-01  0.147274D-01  0.199179D-01  0.137124D-01
     14  -0.621097D-01 -0.193121D+00  0.117811D+00 -0.351736D-01  0.406046D-02
     15   0.662853D-01 -0.647615D-01  0.180021D-02 -0.566716D-01 -0.196588D-01
     16   0.876958D-01  0.137550D+00 -0.223132D-01  0.676051D-01 -0.665323D-02
                36            37            38            39            40 
      1  -0.192481D+04 -0.192481D+04 -0.192481D+04 -0.192481D+04 -0.192481D+04
      2  -0.209332D+00 -0.109751D+00  0.456661D-01  0.140565D+00 -0.395178D+00
      3  -0.332631D+00 -0.132738D+00  0.144851D+00 -0.595562D-01  0.218864D+00
      4  -0.941674D-01 -0.233687D+00  0.813927D-01  0.141005D+00 -0.737053D-01
      5   0.253175D-01  0.139810D-01 -0.520594D-02 -0.182229D-01  0.525914D-01
      6   0.389841D-01  0.155461D-01 -0.177104D-01  0.907540D-02 -0.292241D-01
      7   0.119523D-01  0.298399D-01 -0.101754D-01 -0.181827D-01  0.964021D-02
      8  -0.121675D-01  0.161587D+00 -0.184812D+00  0.390219D-01  0.269408D+00
      9   0.186250D+00 -0.967192D-01 -0.245444D+00 -0.217635D+00  0.142220D-01
     10   0.629539D-01  0.327462D-01 -0.732164D-01  0.787370D-01  0.187480D-02
     11   0.927765D-01  0.866297D-01  0.416619D-01 -0.388595D-01 -0.209673D-01
     12   0.857066D-01  0.132365D-01 -0.549789D-01 -0.597386D-01 -0.662326D-01
     13  -0.120640D+00 -0.296718D-01  0.641843D-01 -0.593402D-01  0.172547D+00
     14  -0.793717D-01 -0.838437D-01  0.247127D-01  0.184997D-01 -0.101833D+00
     15  -0.104040D+00  0.635980D-02  0.946070D-01  0.157234D-01  0.967117D-01
     16   0.190624D-01  0.152682D-01 -0.201210D-01 -0.623854D-01  0.178914D+00
                41            42            43            44            45 
      1  -0.192481D+04 -0.192481D+04 -0.192481D+04 -0.192481D+04 -0.192481D+04
      2   0.227106D+00 -0.183596D+00  0.438827D+00  0.408245D-01  0.133898D+00
      3  -0.210567D+00  0.165419D+00 -0.410897D+00 -0.101980D+00  0.510110D+00
      4  -0.204369D+00 -0.235899D-01 -0.221011D+00 -0.161226D+00  0.150799D+00
      5  -0.315752D-01  0.253316D-01 -0.619152D-01 -0.634985D-02 -0.147561D-01
      6   0.288659D-01 -0.209221D-01  0.561123D-01  0.150961D-01 -0.643089D-01
      7   0.256026D-01  0.355720D-02  0.269603D-01  0.201202D-01 -0.185177D-01
      8  -0.196416D+00  0.192792D+00 -0.353266D+00 -0.104958D+00 -0.153891D-01
      9  -0.104198D+00  0.400617D-01 -0.377692D+00 -0.344240D+00 -0.314048D-01
     10   0.996584D-01 -0.137082D-01  0.221623D+00  0.159726D+00 -0.310596D-01
     11  -0.364916D-01  0.583607D-01 -0.340431D+00 -0.182473D+00  0.483175D-01
     12  -0.145838D+00 -0.192271D-01 -0.224458D+00 -0.138617D+00  0.403853D-01
     13  -0.988299D-01  0.969158D-01 -0.136047D+00  0.620856D-01  0.112014D+00
     14   0.119996D+00 -0.179062D-01  0.448524D+00  0.131723D+00 -0.100833D+00
     15   0.439631D-01  0.999172D-01  0.465494D-01  0.152154D+00  0.534607D-01
     16  -0.140573D+00  0.393246D-01 -0.244287D+00 -0.153089D-01 -0.312757D-01
                46            47            48            49            50 
      1  -0.192480D+04 -0.192480D+04 -0.192480D+04 -0.192480D+04 -0.192480D+04
      2  -0.173686D+00 -0.955700D-01  0.240123D+00 -0.333583D+00  0.183387D+00
      3   0.360552D+00  0.389853D+00  0.275714D+00 -0.100796D+00 -0.217679D+00
      4   0.139821D+00  0.175694D+00  0.465629D-01 -0.336795D-01  0.191794D+00
      5   0.222034D-01  0.173587D-01 -0.365595D-01  0.471406D-01 -0.236036D-01
      6  -0.471637D-01 -0.564571D-01 -0.419552D-01  0.173444D-01  0.315966D-01
      7  -0.189043D-01 -0.209446D-01 -0.707882D-02  0.516093D-02 -0.230252D-01
      8   0.659538D-01 -0.148970D-01  0.941593D-03  0.222790D-01 -0.100049D+00
      9   0.243548D+00  0.292206D+00 -0.243271D+00 -0.147300D-01  0.210028D-02
     10  -0.141906D+00 -0.148131D+00  0.133674D+00 -0.498320D-02 -0.760166D-02
     11   0.366697D+00  0.974438D-01  0.941044D-01 -0.140857D+00  0.284992D-01
     12   0.270390D+00 -0.157057D+00 -0.310385D+00 -0.166505D-01  0.440926D+00
     13   0.463942D-01  0.521202D-01  0.833297D-01 -0.104811D+00  0.951013D-01
     14  -0.119420D+00 -0.198201D+00  0.231021D+00 -0.183285D+00  0.278525D-01
     15   0.409887D-01 -0.189204D-01  0.219366D+00 -0.350178D-01 -0.217402D+00
     16   0.132178D-01  0.308694D-01 -0.722004D-01  0.983882D-01  0.282681D-01
                51            52            53            54            55 
      1  -0.192480D+04 -0.192480D+04 -0.192480D+04 -0.192480D+04 -0.192480D+04
      2   0.111179D+00  0.734766D-01  0.679061D-02  0.280770D+00  0.210322D+00
      3  -0.382212D-01 -0.281487D-01  0.801699D-01  0.828592D-01 -0.175046D+00
      4  -0.113380D-01  0.943272D-02 -0.171909D+00 -0.330014D+00  0.670576D-01
      5  -0.150423D-01 -0.114716D-01 -0.654161D-03 -0.413714D-01 -0.308972D-01
      6   0.492136D-02  0.509693D-02 -0.113413D-01 -0.124573D-01  0.256549D-01
      7   0.265870D-02 -0.165130D-02  0.259545D-01  0.493056D-01 -0.100754D-01
      8  -0.627069D-01  0.250997D+00 -0.204198D+00  0.385202D+00  0.600018D+00
      9  -0.277130D+00  0.108277D-01  0.188398D+00  0.327386D+00 -0.582987D+00
     10   0.165106D+00  0.551658D-01  0.236728D+00  0.691547D+00  0.123872D+00
     11  -0.176749D+00  0.387181D-01 -0.695780D-01 -0.588820D-01  0.168171D+00
     12  -0.190613D+00  0.159140D-01  0.114991D+00  0.157129D+00 -0.270185D+00
     13  -0.223200D+00  0.116634D+00 -0.950619D-01 -0.577334D-01  0.158190D+00
     14  -0.253659D-01 -0.176086D+00  0.847732D-01 -0.325131D+00 -0.363689D+00
     15   0.904939D-01  0.224270D-01 -0.167240D+00 -0.283378D+00  0.364549D+00
     16   0.720016D-01  0.162901D+00 -0.106462D+00  0.273763D+00  0.274570D+00
                56            57            58            59            60 
      1  -0.192480D+04 -0.192479D+04 -0.192479D+04 -0.192479D+04 -0.192479D+04
      2   0.141064D+00 -0.136762D+00 -0.357810D-01  0.316563D+00 -0.150492D+00
      3   0.191428D+00 -0.390129D+00 -0.189223D+00 -0.131441D-01  0.645075D-01
      4   0.654994D+00 -0.366421D+00 -0.430413D-01  0.284501D+00 -0.803295D-01
      5  -0.192176D-01  0.192295D-01  0.663889D-02 -0.444741D-01  0.190791D-01
      6  -0.265192D-01  0.574316D-01  0.286078D-01  0.235160D-02 -0.906343D-02
      7  -0.942556D-01  0.519240D-01  0.654665D-02 -0.399796D-01  0.128660D-01
      8   0.516774D+00 -0.190149D+00 -0.428251D+00  0.166621D+00 -0.200667D+00
      9   0.483884D+00 -0.801748D+00 -0.266841D-01  0.191142D+00 -0.397810D+00
     10  -0.555357D+00  0.301970D+00  0.643204D-01  0.775452D-02  0.262109D+00
     11  -0.263291D+00  0.121959D+00 -0.102604D+00 -0.677712D-01  0.839288D-01
     12   0.384823D+00 -0.202713D+00  0.121120D+00  0.112085D+00 -0.962786D-01
     13  -0.968487D-01  0.999830D-01 -0.299967D-01 -0.575144D-01  0.461023D-01
     14  -0.258379D+00 -0.836934D-02  0.104122D+00 -0.308785D-01  0.212672D-01
     15  -0.453334D+00  0.402200D+00 -0.908766D-01 -0.172093D+00  0.909446D-01
     16   0.328310D+00 -0.109358D+00 -0.838312D-01  0.158351D+00 -0.552668D-01
 Unable to Open any file for archive entry.
 1\1\GINC-X1000C3S1B1N0\SP\RM06L TD-FC\Gen\C39H28N6Ru1(2+)\PNG4RJV\18-D
 ec-2023\0\\#p m06l chkbasis geom=allcheck Guess=Read int=ultrafine scr
 f=(SMD,solvent=n,n-DiMethylFormamide) td=(NStates=60)\\Title\\2,1\C,0,
 2.329955108,-1.8415477384,-0.0553864383\C,0,1.0665647739,-2.2241333953
 ,-1.9602504566\C,0,1.9595333079,-3.2115761495,-2.4366977784\C,0,3.0807
 728314,-3.4871557644,-1.6515406193\C,0,3.2882979064,-2.8067973007,-0.4
 410035553\C,0,2.4772140049,-1.1184627651,1.1615772665\C,0,1.6139145399
 ,0.4817384907,2.5998624327\C,0,2.6800514472,0.297394961,3.489851431\C,
 0,3.6695856733,-0.6241480298,3.1989464671\C,0,3.5868609765,-1.36546528
 07,2.0031790709\H,0,0.1758610898,-1.9603498769,-2.532531082\H,0,3.8144
 276693,-4.2346645666,-1.9583412161\H,0,0.8218799264,1.2032866933,2.814
 3920267\H,0,2.711317479,0.8894193989,4.4050460099\H,0,4.5090452856,-0.
 7843564473,3.8786410845\C,0,-2.3907388819,-1.2300794839,-1.185389408\C
 ,0,-1.5662197958,0.4116650765,-2.600908292\C,0,-2.5848307477,0.1629667
 272,-3.5303156572\C,0,-3.5313441472,-0.8102257198,-3.2703037136\C,0,-3
 .4535283852,-1.5395414775,-2.0659629203\C,0,-2.2438049785,-1.942817942
 4,0.0397947777\C,0,-1.0215153559,-2.249464081,1.986057056\C,0,-1.89773
 1082,-3.2562961316,2.4127379421\C,0,-2.9734455311,-3.6132205749,1.6216
 725618\C,0,-3.171526689,-2.9508096734,0.3925937664\H,0,-0.8089637432,1
 .1764331931,-2.7894653309\H,0,-2.613876879,0.7481230077,-4.44997533\H,
 0,-4.3347346109,-1.0208204866,-3.9791447229\H,0,-0.1653134927,-1.95523
 9354,2.5978090212\H,0,-1.7118527821,-3.7472300786,3.3685644408\H,0,-3.
 6674662185,-4.39689387,1.9321218002\C,0,-0.580840768,2.7146553412,0.47
 61702501\C,0,-2.0214337416,1.438545327,1.7694673653\C,0,-2.6288679333,
 2.5920151989,2.2827971227\C,0,-2.1940091369,3.8390663555,1.8747112479\
 C,0,-1.139320667,3.9275578116,0.9429098504\C,0,0.4917215207,2.73251820
 43,-0.4616785544\C,0,1.9843534104,1.5052981037,-1.7437220422\C,0,2.544
 0910267,2.6783496581,-2.2668741236\C,0,2.0573886888,3.9098716017,-1.87
 03678828\C,0,0.9997701829,3.9631577269,-0.9392156362\H,0,-2.3510228074
 ,0.4444023908,2.0810279831\H,0,-2.6530751601,4.7514278766,2.260867389\
 H,0,2.3542820326,0.5228530314,-2.0471023469\H,0,2.4780982584,4.8368491
 215,-2.2652342405\N,0,-1.0199322618,1.4903630157,0.8891316654\N,0,1.50
 611148,-0.2078055833,1.4621607194\N,0,-1.185099945,-1.6024093437,0.830
 6623311\N,0,1.2394235257,-1.5598610178,-0.8188718109\N,0,-1.4627846614
 ,-0.2667416097,-1.4561983536\N,0,0.9802636305,1.5238522972,-0.86498286
 32\Ru,0,0.0069808083,-0.0976253556,0.0117253957\C,0,-0.6075238665,5.16
 09081837,0.44786565\C,0,0.4172250565,5.1779535654,-0.4554381318\C,0,4.
 5488757326,-2.3457203035,1.5951778159\C,0,4.4073945608,-3.0356524684,0
 .4251114102\C,0,-4.2441886806,-3.2403738625,-0.5096160697\C,0,-4.37759
 79739,-2.5659778342,-1.690116522\H,0,0.8143607153,6.1246593139,-0.8274
 182288\H,0,-1.0436110038,6.0937063142,0.8113474208\H,0,5.1478852055,-3
 .7806965841,0.1267279412\H,0,5.4044067769,-2.5307374264,2.2481376326\H
 ,0,-5.1972059605,-2.7978725945,-2.3734097061\H,0,-4.9559737247,-4.0204
 552628,-0.2317747094\H,0,-3.4422996542,2.4847449769,3.0011288468\H,0,3
 .3618747639,2.5984822727,-2.9838470641\C,0,1.6694654623,-3.8965055543,
 -3.7161845941\C,0,2.4855883124,-4.8431939487,-4.2148344\H,0,3.40348125
 86,-5.1654169867,-3.7190200931\H,0,2.2492382696,-5.3360133244,-5.16082
 32662\C,0,0.4235382781,-3.5025288831,-4.446343347\H,0,-0.4787915555,-3
 .6678482999,-3.8365530982\H,0,0.4236913993,-2.4340836824,-4.713747715\
 H,0,0.3098875968,-4.077941603,-5.3724569522\\Version=AS64L-G16RevC.02\
 State=1-A\HF=-1924.9454891\RMSD=4.507e-09\PG=C01 [X(C39H28N6Ru1)]\\@
 The archive entry for this job was punched.


 Where a calculator on the ENIAC is equipped with 18,000
 vacuum tubes and weighs 30 tons, computers inthe future
 may  have only 1,000 vacuum tubes and weigh only 1 1/2 tons.
              ---Popular Mechanics, March 1949
 Job cpu time:       1 days  8 hours 15 minutes  3.6 seconds.
 Elapsed time:       0 days  2 hours 44 minutes 15.9 seconds.
 File lengths (MBytes):  RWF=  13319 Int=      0 D2E=      0 Chk=   1329 Scr=      1
 Normal termination of Gaussian 16 at Mon Dec 18 22:14:30 2023.
