 Entering Gaussian System, Link 0=g16
 Input=/home/png4rjv/photocat/TMPC_bench/gaussian/Ru-PRC_2_B3LYP-D3_def2SVP.gjf
 Output=/home/png4rjv/photocat/TMPC_bench/gaussian/Ru-PRC_2_B3LYP-D3_def2SVP.log
 Initial command:
 /opt/software/packages/g16/l1.exe "/scratch/ligandum/png4rjv/3415572/Gau-3880535.inp" -scrdir="/scratch/ligandum/png4rjv/3415572/"
 Default is to use a total of  12 processors:
                               12 via shared-memory
                                1 via Linda
 Entering Link 1 = /opt/software/packages/g16/l1.exe PID=   3880610.
  
 Copyright (c) 1988-2021, Gaussian, Inc.  All Rights Reserved.
  
 This is part of the Gaussian(R) 16 program.  It is based on
 the Gaussian(R) 09 system (copyright 2009, Gaussian, Inc.),
 the Gaussian(R) 03 system (copyright 2003, Gaussian, Inc.),
 the Gaussian(R) 98 system (copyright 1998, Gaussian, Inc.),
 the Gaussian(R) 94 system (copyright 1995, Gaussian, Inc.),
 the Gaussian 92(TM) system (copyright 1992, Gaussian, Inc.),
 the Gaussian 90(TM) system (copyright 1990, Gaussian, Inc.),
 the Gaussian 88(TM) system (copyright 1988, Gaussian, Inc.),
 the Gaussian 86(TM) system (copyright 1986, Carnegie Mellon
 University), and the Gaussian 82(TM) system (copyright 1983,
 Carnegie Mellon University). Gaussian is a federally registered
 trademark of Gaussian, Inc.
  
 This software contains proprietary and confidential information,
 including trade secrets, belonging to Gaussian, Inc.
  
 This software is provided under written license and may be
 used, copied, transmitted, or stored only in accord with that
 written license.
  
 The following legend is applicable only to US Government
 contracts under FAR:
  
                    RESTRICTED RIGHTS LEGEND
  
 Use, reproduction and disclosure by the US Government is
 subject to restrictions as set forth in subparagraphs (a)
 and (c) of the Commercial Computer Software - Restricted
 Rights clause in FAR 52.227-19.
  
 Gaussian, Inc.
 340 Quinnipiac St., Bldg. 40, Wallingford CT 06492
  
  
 ---------------------------------------------------------------
 Warning -- This program may not be used in any manner that
 competes with the business of Gaussian, Inc. or will provide
 assistance to any competitor of Gaussian, Inc.  The licensee
 of this program is prohibited from giving any competitor of
 Gaussian, Inc. access to this program.  By using this program,
 the user acknowledges that Gaussian, Inc. is engaged in the
 business of creating and licensing software in the field of
 computational chemistry and represents and warrants to the
 licensee that it is not a competitor of Gaussian, Inc. and that
 it will not use this program in any manner prohibited above.
 ---------------------------------------------------------------
  

 Cite this work as:
 Gaussian 16, Revision C.02,
 M. J. Frisch, G. W. Trucks, H. B. Schlegel, G. E. Scuseria, 
 M. A. Robb, J. R. Cheeseman, G. Scalmani, V. Barone, 
 G. A. Petersson, H. Nakatsuji, X. Li, M. Caricato, A. V. Marenich, 
 J. Bloino, B. G. Janesko, R. Gomperts, B. Mennucci, H. P. Hratchian, 
 J. V. Ortiz, A. F. Izmaylov, J. L. Sonnenberg, D. Williams-Young, 
 F. Ding, F. Lipparini, F. Egidi, J. Goings, B. Peng, A. Petrone, 
 T. Henderson, D. Ranasinghe, V. G. Zakrzewski, J. Gao, N. Rega, 
 G. Zheng, W. Liang, M. Hada, M. Ehara, K. Toyota, R. Fukuda, 
 J. Hasegawa, M. Ishida, T. Nakajima, Y. Honda, O. Kitao, H. Nakai, 
 T. Vreven, K. Throssell, J. A. Montgomery, Jr., J. E. Peralta, 
 F. Ogliaro, M. J. Bearpark, J. J. Heyd, E. N. Brothers, K. N. Kudin, 
 V. N. Staroverov, T. A. Keith, R. Kobayashi, J. Normand, 
 K. Raghavachari, A. P. Rendell, J. C. Burant, S. S. Iyengar, 
 J. Tomasi, M. Cossi, J. M. Millam, M. Klene, C. Adamo, R. Cammi, 
 J. W. Ochterski, R. L. Martin, K. Morokuma, O. Farkas, 
 J. B. Foresman, and D. J. Fox, Gaussian, Inc., Wallingford CT, 2019.
 
 ******************************************
 Gaussian 16:  AS64L-G16RevC.02  7-Dec-2021
                 8-Jan-2024 
 ******************************************
 %chk=cp.chk
 %NProcshared=16
 Will use up to   16 processors via shared memory.
 Default route: MaxDisk=500GB
 ----------------------------------------------------------------------
 #p b3lyp/def2svp opt=tight Symmetry=None int=ultrafine scrf=(SMD,solve
 nt=n,n-DiMethylFormamide) EmpiricalDispersion=GD3BJ
 ----------------------------------------------------------------------
 1/7=10,18=20,19=15,26=6,38=1/1,3;
 2/9=110,12=2,15=3,17=6,18=5,40=1/2;
 3/5=43,7=101,11=2,25=1,30=1,70=32201,71=1,72=148,74=-5,75=-5,124=41/1,2,3;
 4//1;
 5/5=2,38=5,53=148/2;
 6/7=2,8=2,9=2,10=2,28=1/1;
 7/30=1/1,2,3,16;
 1/7=10,18=20,19=15,26=6/3(2);
 2/9=110,15=3/2;
 99//99;
 2/9=110,15=3/2;
 3/5=43,7=101,11=2,25=1,30=1,70=32205,71=1,72=148,74=-5,75=-5,124=41/1,2,3;
 4/5=5,16=3,69=1/1;
 5/5=2,38=5,53=148/2;
 7/30=1/1,2,3,16;
 1/7=10,18=20,19=15,26=6/3(-5);
 2/9=110,15=3/2;
 6/7=2,8=2,9=2,10=2,19=2,28=1/1;
 99/9=1/99;
 Leave Link    1 at Mon Jan  8 11:01:27 2024, MaxMem=           0 cpu:               0.1 elap:               0.1
 (Enter /opt/software/packages/g16/l101.exe)
 -----
 Title
 -----
 Symbolic Z-matrix:
 Charge =  2 Multiplicity = 1
 C                    -1.65303  -2.05859   0.24793 
 C                    -2.42043  -0.3129   -1.0739 
 C                    -3.65977  -0.95032  -1.32413 
 C                    -3.84744  -2.21871  -0.75147 
 C                    -2.83936  -2.80068   0.04744 
 C                    -0.60829  -2.56618   1.0796 
 C                     1.48464  -2.21925   2.01069 
 C                     1.43572  -3.46895   2.65365 
 C                     0.32683  -4.284     2.49527 
 C                    -0.74241  -3.83427   1.69146 
 H                    -2.20013   0.66563  -1.4983 
 H                    -4.76951  -2.77141  -0.90235 
 H                     2.3469   -1.56067   2.12493 
 H                     2.27955  -3.77756   3.27247 
 H                     0.25987  -5.25733   2.98698 
 C                    -0.68706   2.69546  -0.09592 
 C                     0.32622   2.08055  -2.09279 
 C                    -0.03377   3.31279  -2.67946 
 C                    -0.74465   4.24622  -1.94776 
 C                    -1.08676   3.9506   -0.60603 
 C                    -1.01253   2.32462   1.24852 
 C                    -0.88777   0.71197   2.91424 
 C                    -1.58598   1.53823   3.80245 
 C                    -2.01468   2.78928   3.39321 
 C                    -1.73137   3.21686   2.0739 
 H                     0.87819   1.33059  -2.65792 
 H                     0.24981   3.50658  -3.71697 
 H                    -1.0381    5.201    -2.38519 
 H                    -0.53835  -0.28354   3.21016 
 H                    -1.78884   1.17469   4.81236 
 H                    -2.56327   3.4452    4.06962 
 C                     3.24115   0.19755  -0.20267 
 C                     2.66181   1.43134   1.6734 
 C                     4.00691   1.78852   1.88303 
 C                     4.98764   1.32936   1.01971 
 C                     4.61543   0.49847  -0.06516 
 C                     2.79546  -0.63947  -1.2761 
 C                     0.99289  -1.65901  -2.34162 
 C                     1.84836  -2.21374  -3.30935 
 C                     3.20949  -1.96613  -3.24517 
 C                     3.71808  -1.15555  -2.20805 
 H                     1.88096   1.77908   2.34331 
 H                     6.03869   1.59212   1.1652 
 H                    -0.08279  -1.83217  -2.36377 
 H                     3.89457  -2.38557  -3.99215 
 N                     2.28572   0.65473   0.66003 
 N                     0.48925  -1.77892   1.2481 
 N                    -0.60515   1.08497   1.66667 
 N                    -1.45742  -0.83698  -0.31963 
 N                     0.0093    1.77532  -0.8399 
 N                     1.45444  -0.88214  -1.34767 
 Ru                    0.36831   0.01116   0.18221 
 C                     5.54353  -0.03723  -1.02305 
 C                     5.11013  -0.82971  -2.04927 
 C                    -1.95376  -4.5874    1.45551 
 C                    -2.96178  -4.08956   0.67893 
 C                    -2.1305    4.4897    1.5371 
 C                    -1.81943   4.84035   0.24916 
 H                     5.8244   -1.23244  -2.77035 
 H                     6.59524   0.20532  -0.90823 
 H                    -3.87173  -4.66134   0.51682 
 H                    -2.05006  -5.56621   1.93016 
 H                    -2.13294   5.80633  -0.15303 
 H                    -2.68365   5.17089   2.18429 
 H                     4.25459   2.42568   2.73098 
 H                     1.42218  -2.8347   -4.09441 
 C                    -4.68506  -0.26124  -2.14471 
 C                    -5.82165  -0.88116  -2.52298 
 H                    -6.06354  -1.93129  -2.27551 
 H                    -6.56774  -0.34357  -3.12309 
 C                    -4.41719   1.18389  -2.54335 
 H                    -4.23271   1.81918  -1.6523 
 H                    -3.52986   1.26668  -3.19579 
 H                    -5.27707   1.60802  -3.08543 
 
 ITRead=  0  0  0  0  0  0  0  0  0  0  0  0  0  0  0  0  0  0  0  0
 ITRead=  0  0  0  0  0  0  0  0  0  0  0  0  0  0  0  0  0  0  0  0
 ITRead=  0  0  0  0  0  0  0  0  0  0  0  0  0  0  0  0  0  0  0  0
 ITRead=  0  0  0  0  0  0  0  0  0  0  0  0  0  0
 MicOpt= -1 -1 -1 -1 -1 -1 -1 -1 -1 -1 -1 -1 -1 -1 -1 -1 -1 -1 -1 -1
 MicOpt= -1 -1 -1 -1 -1 -1 -1 -1 -1 -1 -1 -1 -1 -1 -1 -1 -1 -1 -1 -1
 MicOpt= -1 -1 -1 -1 -1 -1 -1 -1 -1 -1 -1 -1 -1 -1 -1 -1 -1 -1 -1 -1
 MicOpt= -1 -1 -1 -1 -1 -1 -1 -1 -1 -1 -1 -1 -1 -1
 NAtoms=     74 NQM=       74 NQMF=       0 NMMI=      0 NMMIF=      0
                NMic=       0 NMicF=      0.
                    Isotopes and Nuclear Properties:
 (Nuclear quadrupole moments (NQMom) in fm**2, nuclear magnetic moments (NMagM)
  in nuclear magnetons)

  Atom         1           2           3           4           5           6           7           8           9          10
 IAtWgt=          12          12          12          12          12          12          12          12          12          12
 AtmWgt=  12.0000000  12.0000000  12.0000000  12.0000000  12.0000000  12.0000000  12.0000000  12.0000000  12.0000000  12.0000000
 NucSpn=           0           0           0           0           0           0           0           0           0           0
 AtZEff=  -0.0000000  -0.0000000  -0.0000000  -0.0000000  -0.0000000  -0.0000000  -0.0000000  -0.0000000  -0.0000000  -0.0000000
 NQMom=    0.0000000   0.0000000   0.0000000   0.0000000   0.0000000   0.0000000   0.0000000   0.0000000   0.0000000   0.0000000
 NMagM=    0.0000000   0.0000000   0.0000000   0.0000000   0.0000000   0.0000000   0.0000000   0.0000000   0.0000000   0.0000000
 AtZNuc=   6.0000000   6.0000000   6.0000000   6.0000000   6.0000000   6.0000000   6.0000000   6.0000000   6.0000000   6.0000000

  Atom        11          12          13          14          15          16          17          18          19          20
 IAtWgt=           1           1           1           1           1          12          12          12          12          12
 AtmWgt=   1.0078250   1.0078250   1.0078250   1.0078250   1.0078250  12.0000000  12.0000000  12.0000000  12.0000000  12.0000000
 NucSpn=           1           1           1           1           1           0           0           0           0           0
 AtZEff=  -0.0000000  -0.0000000  -0.0000000  -0.0000000  -0.0000000  -0.0000000  -0.0000000  -0.0000000  -0.0000000  -0.0000000
 NQMom=    0.0000000   0.0000000   0.0000000   0.0000000   0.0000000   0.0000000   0.0000000   0.0000000   0.0000000   0.0000000
 NMagM=    2.7928460   2.7928460   2.7928460   2.7928460   2.7928460   0.0000000   0.0000000   0.0000000   0.0000000   0.0000000
 AtZNuc=   1.0000000   1.0000000   1.0000000   1.0000000   1.0000000   6.0000000   6.0000000   6.0000000   6.0000000   6.0000000

  Atom        21          22          23          24          25          26          27          28          29          30
 IAtWgt=          12          12          12          12          12           1           1           1           1           1
 AtmWgt=  12.0000000  12.0000000  12.0000000  12.0000000  12.0000000   1.0078250   1.0078250   1.0078250   1.0078250   1.0078250
 NucSpn=           0           0           0           0           0           1           1           1           1           1
 AtZEff=  -0.0000000  -0.0000000  -0.0000000  -0.0000000  -0.0000000  -0.0000000  -0.0000000  -0.0000000  -0.0000000  -0.0000000
 NQMom=    0.0000000   0.0000000   0.0000000   0.0000000   0.0000000   0.0000000   0.0000000   0.0000000   0.0000000   0.0000000
 NMagM=    0.0000000   0.0000000   0.0000000   0.0000000   0.0000000   2.7928460   2.7928460   2.7928460   2.7928460   2.7928460
 AtZNuc=   6.0000000   6.0000000   6.0000000   6.0000000   6.0000000   1.0000000   1.0000000   1.0000000   1.0000000   1.0000000

  Atom        31          32          33          34          35          36          37          38          39          40
 IAtWgt=           1          12          12          12          12          12          12          12          12          12
 AtmWgt=   1.0078250  12.0000000  12.0000000  12.0000000  12.0000000  12.0000000  12.0000000  12.0000000  12.0000000  12.0000000
 NucSpn=           1           0           0           0           0           0           0           0           0           0
 AtZEff=  -0.0000000  -0.0000000  -0.0000000  -0.0000000  -0.0000000  -0.0000000  -0.0000000  -0.0000000  -0.0000000  -0.0000000
 NQMom=    0.0000000   0.0000000   0.0000000   0.0000000   0.0000000   0.0000000   0.0000000   0.0000000   0.0000000   0.0000000
 NMagM=    2.7928460   0.0000000   0.0000000   0.0000000   0.0000000   0.0000000   0.0000000   0.0000000   0.0000000   0.0000000
 AtZNuc=   1.0000000   6.0000000   6.0000000   6.0000000   6.0000000   6.0000000   6.0000000   6.0000000   6.0000000   6.0000000

  Atom        41          42          43          44          45          46          47          48          49          50
 IAtWgt=          12           1           1           1           1          14          14          14          14          14
 AtmWgt=  12.0000000   1.0078250   1.0078250   1.0078250   1.0078250  14.0030740  14.0030740  14.0030740  14.0030740  14.0030740
 NucSpn=           0           1           1           1           1           2           2           2           2           2
 AtZEff=  -0.0000000  -0.0000000  -0.0000000  -0.0000000  -0.0000000  -0.0000000  -0.0000000  -0.0000000  -0.0000000  -0.0000000
 NQMom=    0.0000000   0.0000000   0.0000000   0.0000000   0.0000000   2.0440000   2.0440000   2.0440000   2.0440000   2.0440000
 NMagM=    0.0000000   2.7928460   2.7928460   2.7928460   2.7928460   0.4037610   0.4037610   0.4037610   0.4037610   0.4037610
 AtZNuc=   6.0000000   1.0000000   1.0000000   1.0000000   1.0000000   7.0000000   7.0000000   7.0000000   7.0000000   7.0000000

  Atom        51          52          53          54          55          56          57          58          59          60
 IAtWgt=          14         102          12          12          12          12          12          12           1           1
 AtmWgt=  14.0030740 101.9037000  12.0000000  12.0000000  12.0000000  12.0000000  12.0000000  12.0000000   1.0078250   1.0078250
 NucSpn=           2           0           0           0           0           0           0           0           1           1
 AtZEff=  -0.0000000  -0.0000000  -0.0000000  -0.0000000  -0.0000000  -0.0000000  -0.0000000  -0.0000000  -0.0000000  -0.0000000
 NQMom=    2.0440000   0.0000000   0.0000000   0.0000000   0.0000000   0.0000000   0.0000000   0.0000000   0.0000000   0.0000000
 NMagM=    0.4037610   0.0000000   0.0000000   0.0000000   0.0000000   0.0000000   0.0000000   0.0000000   2.7928460   2.7928460
 AtZNuc=   7.0000000  44.0000000   6.0000000   6.0000000   6.0000000   6.0000000   6.0000000   6.0000000   1.0000000   1.0000000

  Atom        61          62          63          64          65          66          67          68          69          70
 IAtWgt=           1           1           1           1           1           1          12          12           1           1
 AtmWgt=   1.0078250   1.0078250   1.0078250   1.0078250   1.0078250   1.0078250  12.0000000  12.0000000   1.0078250   1.0078250
 NucSpn=           1           1           1           1           1           1           0           0           1           1
 AtZEff=  -0.0000000  -0.0000000  -0.0000000  -0.0000000  -0.0000000  -0.0000000  -0.0000000  -0.0000000  -0.0000000  -0.0000000
 NQMom=    0.0000000   0.0000000   0.0000000   0.0000000   0.0000000   0.0000000   0.0000000   0.0000000   0.0000000   0.0000000
 NMagM=    2.7928460   2.7928460   2.7928460   2.7928460   2.7928460   2.7928460   0.0000000   0.0000000   2.7928460   2.7928460
 AtZNuc=   1.0000000   1.0000000   1.0000000   1.0000000   1.0000000   1.0000000   6.0000000   6.0000000   1.0000000   1.0000000

  Atom        71          72          73          74
 IAtWgt=          12           1           1           1
 AtmWgt=  12.0000000   1.0078250   1.0078250   1.0078250
 NucSpn=           0           1           1           1
 AtZEff=  -0.0000000  -0.0000000  -0.0000000  -0.0000000
 NQMom=    0.0000000   0.0000000   0.0000000   0.0000000
 NMagM=    0.0000000   2.7928460   2.7928460   2.7928460
 AtZNuc=   6.0000000   1.0000000   1.0000000   1.0000000
 Leave Link  101 at Mon Jan  8 11:01:28 2024, MaxMem=  2831155200 cpu:               0.1 elap:               0.1
 (Enter /opt/software/packages/g16/l103.exe)

 GradGradGradGradGradGradGradGradGradGradGradGradGradGradGradGradGradGrad
 Berny optimization.
 Initialization pass.
                           ----------------------------
                           !    Initial Parameters    !
                           ! (Angstroms and Degrees)  !
 --------------------------                            --------------------------
 ! Name  Definition              Value          Derivative Info.                !
 --------------------------------------------------------------------------------
 ! R1    R(1,5)                  1.4136         estimate D2E/DX2                !
 ! R2    R(1,6)                  1.4286         estimate D2E/DX2                !
 ! R3    R(1,49)                 1.3611         estimate D2E/DX2                !
 ! R4    R(2,3)                  1.4159         estimate D2E/DX2                !
 ! R5    R(2,11)                 1.0891         estimate D2E/DX2                !
 ! R6    R(2,49)                 1.3308         estimate D2E/DX2                !
 ! R7    R(3,4)                  1.4043         estimate D2E/DX2                !
 ! R8    R(3,67)                 1.483          estimate D2E/DX2                !
 ! R9    R(4,5)                  1.4118         estimate D2E/DX2                !
 ! R10   R(4,12)                 1.0856         estimate D2E/DX2                !
 ! R11   R(5,56)                 1.4405         estimate D2E/DX2                !
 ! R12   R(6,10)                 1.4144         estimate D2E/DX2                !
 ! R13   R(6,47)                 1.3612         estimate D2E/DX2                !
 ! R14   R(7,8)                  1.4063         estimate D2E/DX2                !
 ! R15   R(7,13)                 1.091          estimate D2E/DX2                !
 ! R16   R(7,47)                 1.329          estimate D2E/DX2                !
 ! R17   R(8,9)                  1.3853         estimate D2E/DX2                !
 ! R18   R(8,14)                 1.091          estimate D2E/DX2                !
 ! R19   R(9,10)                 1.4113         estimate D2E/DX2                !
 ! R20   R(9,15)                 1.0925         estimate D2E/DX2                !
 ! R21   R(10,55)                1.4458         estimate D2E/DX2                !
 ! R22   R(16,20)                1.4126         estimate D2E/DX2                !
 ! R23   R(16,21)                1.4321         estimate D2E/DX2                !
 ! R24   R(16,50)                1.373          estimate D2E/DX2                !
 ! R25   R(17,18)                1.4115         estimate D2E/DX2                !
 ! R26   R(17,26)                1.0892         estimate D2E/DX2                !
 ! R27   R(17,50)                1.3279         estimate D2E/DX2                !
 ! R28   R(18,19)                1.3828         estimate D2E/DX2                !
 ! R29   R(18,27)                1.0929         estimate D2E/DX2                !
 ! R30   R(19,20)                1.4159         estimate D2E/DX2                !
 ! R31   R(19,28)                1.0904         estimate D2E/DX2                !
 ! R32   R(20,58)                1.4352         estimate D2E/DX2                !
 ! R33   R(21,25)                1.4121         estimate D2E/DX2                !
 ! R34   R(21,48)                1.3702         estimate D2E/DX2                !
 ! R35   R(22,23)                1.3997         estimate D2E/DX2                !
 ! R36   R(22,29)                1.0958         estimate D2E/DX2                !
 ! R37   R(22,48)                1.3325         estimate D2E/DX2                !
 ! R38   R(23,24)                1.3843         estimate D2E/DX2                !
 ! R39   R(23,30)                1.0923         estimate D2E/DX2                !
 ! R40   R(24,25)                1.4155         estimate D2E/DX2                !
 ! R41   R(24,31)                1.0903         estimate D2E/DX2                !
 ! R42   R(25,57)                1.4379         estimate D2E/DX2                !
 ! R43   R(32,36)                1.4135         estimate D2E/DX2                !
 ! R44   R(32,37)                1.4323         estimate D2E/DX2                !
 ! R45   R(32,46)                1.3661         estimate D2E/DX2                !
 ! R46   R(33,34)                1.4074         estimate D2E/DX2                !
 ! R47   R(33,42)                1.086          estimate D2E/DX2                !
 ! R48   R(33,46)                1.331          estimate D2E/DX2                !
 ! R49   R(34,35)                1.3849         estimate D2E/DX2                !
 ! R50   R(34,65)                1.0892         estimate D2E/DX2                !
 ! R51   R(35,36)                1.4163         estimate D2E/DX2                !
 ! R52   R(35,43)                1.0931         estimate D2E/DX2                !
 ! R53   R(36,53)                1.4373         estimate D2E/DX2                !
 ! R54   R(37,41)                1.4093         estimate D2E/DX2                !
 ! R55   R(37,51)                1.3647         estimate D2E/DX2                !
 ! R56   R(38,39)                1.4057         estimate D2E/DX2                !
 ! R57   R(38,44)                1.0898         estimate D2E/DX2                !
 ! R58   R(38,51)                1.3433         estimate D2E/DX2                !
 ! R59   R(39,40)                1.385          estimate D2E/DX2                !
 ! R60   R(39,66)                1.0879         estimate D2E/DX2                !
 ! R61   R(40,41)                1.4111         estimate D2E/DX2                !
 ! R62   R(40,45)                1.0969         estimate D2E/DX2                !
 ! R63   R(41,54)                1.4385         estimate D2E/DX2                !
 ! R64   R(46,52)                2.0782         estimate D2E/DX2                !
 ! R65   R(47,52)                2.0869         estimate D2E/DX2                !
 ! R66   R(48,52)                2.0747         estimate D2E/DX2                !
 ! R67   R(49,52)                2.0747         estimate D2E/DX2                !
 ! R68   R(50,52)                2.0702         estimate D2E/DX2                !
 ! R69   R(51,52)                2.078          estimate D2E/DX2                !
 ! R70   R(53,54)                1.3671         estimate D2E/DX2                !
 ! R71   R(53,60)                1.0854         estimate D2E/DX2                !
 ! R72   R(54,59)                1.0919         estimate D2E/DX2                !
 ! R73   R(55,56)                1.3664         estimate D2E/DX2                !
 ! R74   R(55,62)                1.0921         estimate D2E/DX2                !
 ! R75   R(56,61)                1.0868         estimate D2E/DX2                !
 ! R76   R(57,58)                1.3706         estimate D2E/DX2                !
 ! R77   R(57,64)                1.0903         estimate D2E/DX2                !
 ! R78   R(58,63)                1.0923         estimate D2E/DX2                !
 ! R79   R(67,68)                1.3488         estimate D2E/DX2                !
 ! R80   R(67,71)                1.5228         estimate D2E/DX2                !
 ! R81   R(68,69)                1.1057         estimate D2E/DX2                !
 ! R82   R(68,70)                1.0981         estimate D2E/DX2                !
 ! R83   R(71,72)                1.1098         estimate D2E/DX2                !
 ! R84   R(71,73)                1.1045         estimate D2E/DX2                !
 ! R85   R(71,74)                1.1014         estimate D2E/DX2                !
 ! A1    A(5,1,6)              120.6493         estimate D2E/DX2                !
 ! A2    A(5,1,49)             122.1824         estimate D2E/DX2                !
 ! A3    A(6,1,49)             117.1641         estimate D2E/DX2                !
 ! A4    A(3,2,11)             120.8401         estimate D2E/DX2                !
 ! A5    A(3,2,49)             123.7977         estimate D2E/DX2                !
 ! A6    A(11,2,49)            115.3615         estimate D2E/DX2                !
 ! A7    A(2,3,4)              116.8414         estimate D2E/DX2                !
 ! A8    A(2,3,67)             119.5857         estimate D2E/DX2                !
 ! A9    A(4,3,67)             123.5685         estimate D2E/DX2                !
 ! A10   A(3,4,5)              120.5089         estimate D2E/DX2                !
 ! A11   A(3,4,12)             121.1115         estimate D2E/DX2                !
 ! A12   A(5,4,12)             118.3772         estimate D2E/DX2                !
 ! A13   A(1,5,4)              117.5873         estimate D2E/DX2                !
 ! A14   A(1,5,56)             118.6112         estimate D2E/DX2                !
 ! A15   A(4,5,56)             123.7953         estimate D2E/DX2                !
 ! A16   A(1,6,10)             120.0707         estimate D2E/DX2                !
 ! A17   A(1,6,47)             117.1451         estimate D2E/DX2                !
 ! A18   A(10,6,47)            122.7837         estimate D2E/DX2                !
 ! A19   A(8,7,13)             121.0685         estimate D2E/DX2                !
 ! A20   A(8,7,47)             122.0555         estimate D2E/DX2                !
 ! A21   A(13,7,47)            116.8742         estimate D2E/DX2                !
 ! A22   A(7,8,9)              119.8964         estimate D2E/DX2                !
 ! A23   A(7,8,14)             118.9354         estimate D2E/DX2                !
 ! A24   A(9,8,14)             121.1682         estimate D2E/DX2                !
 ! A25   A(8,9,10)             118.954          estimate D2E/DX2                !
 ! A26   A(8,9,15)             121.4513         estimate D2E/DX2                !
 ! A27   A(10,9,15)            119.591          estimate D2E/DX2                !
 ! A28   A(6,10,9)             117.4043         estimate D2E/DX2                !
 ! A29   A(6,10,55)            118.4181         estimate D2E/DX2                !
 ! A30   A(9,10,55)            124.1774         estimate D2E/DX2                !
 ! A31   A(20,16,21)           120.3171         estimate D2E/DX2                !
 ! A32   A(20,16,50)           122.9097         estimate D2E/DX2                !
 ! A33   A(21,16,50)           116.7713         estimate D2E/DX2                !
 ! A34   A(18,17,26)           120.9764         estimate D2E/DX2                !
 ! A35   A(18,17,50)           122.1386         estimate D2E/DX2                !
 ! A36   A(26,17,50)           116.8845         estimate D2E/DX2                !
 ! A37   A(17,18,19)           120.0338         estimate D2E/DX2                !
 ! A38   A(17,18,27)           118.8954         estimate D2E/DX2                !
 ! A39   A(19,18,27)           121.0679         estimate D2E/DX2                !
 ! A40   A(18,19,20)           118.9946         estimate D2E/DX2                !
 ! A41   A(18,19,28)           121.1405         estimate D2E/DX2                !
 ! A42   A(20,19,28)           119.8642         estimate D2E/DX2                !
 ! A43   A(16,20,19)           117.3466         estimate D2E/DX2                !
 ! A44   A(16,20,58)           118.6939         estimate D2E/DX2                !
 ! A45   A(19,20,58)           123.9568         estimate D2E/DX2                !
 ! A46   A(16,21,25)           120.0526         estimate D2E/DX2                !
 ! A47   A(16,21,48)           116.9476         estimate D2E/DX2                !
 ! A48   A(25,21,48)           122.9978         estimate D2E/DX2                !
 ! A49   A(23,22,29)           121.6011         estimate D2E/DX2                !
 ! A50   A(23,22,48)           122.3241         estimate D2E/DX2                !
 ! A51   A(29,22,48)           116.0745         estimate D2E/DX2                !
 ! A52   A(22,23,24)           120.024          estimate D2E/DX2                !
 ! A53   A(22,23,30)           118.8722         estimate D2E/DX2                !
 ! A54   A(24,23,30)           121.1024         estimate D2E/DX2                !
 ! A55   A(23,24,25)           119.113          estimate D2E/DX2                !
 ! A56   A(23,24,31)           121.0708         estimate D2E/DX2                !
 ! A57   A(25,24,31)           119.8162         estimate D2E/DX2                !
 ! A58   A(21,25,24)           117.1166         estimate D2E/DX2                !
 ! A59   A(21,25,57)           118.843          estimate D2E/DX2                !
 ! A60   A(24,25,57)           124.0404         estimate D2E/DX2                !
 ! A61   A(36,32,37)           119.9895         estimate D2E/DX2                !
 ! A62   A(36,32,46)           123.1821         estimate D2E/DX2                !
 ! A63   A(37,32,46)           116.8227         estimate D2E/DX2                !
 ! A64   A(34,33,42)           120.9325         estimate D2E/DX2                !
 ! A65   A(34,33,46)           122.1098         estimate D2E/DX2                !
 ! A66   A(42,33,46)           116.957          estimate D2E/DX2                !
 ! A67   A(33,34,35)           119.9872         estimate D2E/DX2                !
 ! A68   A(33,34,65)           118.7995         estimate D2E/DX2                !
 ! A69   A(35,34,65)           121.2133         estimate D2E/DX2                !
 ! A70   A(34,35,36)           119.0718         estimate D2E/DX2                !
 ! A71   A(34,35,43)           121.2135         estimate D2E/DX2                !
 ! A72   A(36,35,43)           119.7138         estimate D2E/DX2                !
 ! A73   A(32,36,35)           117.0594         estimate D2E/DX2                !
 ! A74   A(32,36,53)           118.921          estimate D2E/DX2                !
 ! A75   A(35,36,53)           124.0178         estimate D2E/DX2                !
 ! A76   A(32,37,41)           120.3899         estimate D2E/DX2                !
 ! A77   A(32,37,51)           116.6798         estimate D2E/DX2                !
 ! A78   A(41,37,51)           122.9236         estimate D2E/DX2                !
 ! A79   A(39,38,44)           121.6011         estimate D2E/DX2                !
 ! A80   A(39,38,51)           121.9045         estimate D2E/DX2                !
 ! A81   A(44,38,51)           116.493          estimate D2E/DX2                !
 ! A82   A(38,39,40)           119.712          estimate D2E/DX2                !
 ! A83   A(38,39,66)           118.9226         estimate D2E/DX2                !
 ! A84   A(40,39,66)           121.365          estimate D2E/DX2                !
 ! A85   A(39,40,41)           119.4039         estimate D2E/DX2                !
 ! A86   A(39,40,45)           120.9226         estimate D2E/DX2                !
 ! A87   A(41,40,45)           119.6723         estimate D2E/DX2                !
 ! A88   A(37,41,40)           117.4137         estimate D2E/DX2                !
 ! A89   A(37,41,54)           118.5288         estimate D2E/DX2                !
 ! A90   A(40,41,54)           124.0575         estimate D2E/DX2                !
 ! A91   A(32,46,33)           118.5857         estimate D2E/DX2                !
 ! A92   A(32,46,52)           113.3567         estimate D2E/DX2                !
 ! A93   A(33,46,52)           128.0576         estimate D2E/DX2                !
 ! A94   A(6,47,7)             118.9027         estimate D2E/DX2                !
 ! A95   A(6,47,52)            112.7154         estimate D2E/DX2                !
 ! A96   A(7,47,52)            128.366          estimate D2E/DX2                !
 ! A97   A(21,48,22)           118.4193         estimate D2E/DX2                !
 ! A98   A(21,48,52)           112.9175         estimate D2E/DX2                !
 ! A99   A(22,48,52)           128.65           estimate D2E/DX2                !
 ! A100  A(1,49,2)             119.0641         estimate D2E/DX2                !
 ! A101  A(1,49,52)            113.1099         estimate D2E/DX2                !
 ! A102  A(2,49,52)            127.7994         estimate D2E/DX2                !
 ! A103  A(16,50,17)           118.5722         estimate D2E/DX2                !
 ! A104  A(16,50,52)           113.0489         estimate D2E/DX2                !
 ! A105  A(17,50,52)           128.3387         estimate D2E/DX2                !
 ! A106  A(37,51,38)           118.6384         estimate D2E/DX2                !
 ! A107  A(37,51,52)           113.4879         estimate D2E/DX2                !
 ! A108  A(38,51,52)           127.8626         estimate D2E/DX2                !
 ! A109  A(46,52,47)            95.4357         estimate D2E/DX2                !
 ! A110  A(46,52,48)            96.2064         estimate D2E/DX2                !
 ! A111  A(46,52,50)            90.551          estimate D2E/DX2                !
 ! A112  A(46,52,51)            79.6397         estimate D2E/DX2                !
 ! A113  A(47,52,48)            96.068          estimate D2E/DX2                !
 ! A114  A(47,52,49)            79.8566         estimate D2E/DX2                !
 ! A115  A(47,52,51)            88.6818         estimate D2E/DX2                !
 ! A116  A(48,52,49)            88.3818         estimate D2E/DX2                !
 ! A117  A(48,52,50)            80.2605         estimate D2E/DX2                !
 ! A118  A(49,52,50)            94.3781         estimate D2E/DX2                !
 ! A119  A(49,52,51)            96.0924         estimate D2E/DX2                !
 ! A120  A(50,52,51)            95.3639         estimate D2E/DX2                !
 ! A121  A(36,53,54)           120.7714         estimate D2E/DX2                !
 ! A122  A(36,53,60)           118.1563         estimate D2E/DX2                !
 ! A123  A(54,53,60)           121.0723         estimate D2E/DX2                !
 ! A124  A(41,54,53)           121.3963         estimate D2E/DX2                !
 ! A125  A(41,54,59)           118.4625         estimate D2E/DX2                !
 ! A126  A(53,54,59)           120.1411         estimate D2E/DX2                !
 ! A127  A(10,55,56)           121.4037         estimate D2E/DX2                !
 ! A128  A(10,55,62)           118.0246         estimate D2E/DX2                !
 ! A129  A(56,55,62)           120.5651         estimate D2E/DX2                !
 ! A130  A(5,56,55)            120.8279         estimate D2E/DX2                !
 ! A131  A(5,56,61)            118.4564         estimate D2E/DX2                !
 ! A132  A(55,56,61)           120.7137         estimate D2E/DX2                !
 ! A133  A(25,57,58)           120.949          estimate D2E/DX2                !
 ! A134  A(25,57,64)           118.1814         estimate D2E/DX2                !
 ! A135  A(58,57,64)           120.869          estimate D2E/DX2                !
 ! A136  A(20,58,57)           121.1437         estimate D2E/DX2                !
 ! A137  A(20,58,63)           118.3835         estimate D2E/DX2                !
 ! A138  A(57,58,63)           120.4711         estimate D2E/DX2                !
 ! A139  A(3,67,68)            121.6141         estimate D2E/DX2                !
 ! A140  A(3,67,71)            117.6563         estimate D2E/DX2                !
 ! A141  A(68,67,71)           120.7285         estimate D2E/DX2                !
 ! A142  A(67,68,69)           123.9249         estimate D2E/DX2                !
 ! A143  A(67,68,70)           120.0531         estimate D2E/DX2                !
 ! A144  A(69,68,70)           116.0182         estimate D2E/DX2                !
 ! A145  A(67,71,72)           111.2415         estimate D2E/DX2                !
 ! A146  A(67,71,73)           111.5358         estimate D2E/DX2                !
 ! A147  A(67,71,74)           110.9115         estimate D2E/DX2                !
 ! A148  A(72,71,73)           107.3277         estimate D2E/DX2                !
 ! A149  A(72,71,74)           107.7286         estimate D2E/DX2                !
 ! A150  A(73,71,74)           107.9152         estimate D2E/DX2                !
 ! A151  L(46,52,49,47,-1)     175.2923         estimate D2E/DX2                !
 ! A152  L(47,52,50,46,-1)     185.9867         estimate D2E/DX2                !
 ! A153  L(48,52,51,46,-1)     175.8461         estimate D2E/DX2                !
 ! A154  L(46,52,49,47,-2)     184.1096         estimate D2E/DX2                !
 ! A155  L(47,52,50,46,-2)     183.0088         estimate D2E/DX2                !
 ! A156  L(48,52,51,46,-2)     184.3849         estimate D2E/DX2                !
 ! D1    D(6,1,5,4)            177.9816         estimate D2E/DX2                !
 ! D2    D(6,1,5,56)            -1.1427         estimate D2E/DX2                !
 ! D3    D(49,1,5,4)            -1.2463         estimate D2E/DX2                !
 ! D4    D(49,1,5,56)          179.6294         estimate D2E/DX2                !
 ! D5    D(5,1,6,10)             1.2466         estimate D2E/DX2                !
 ! D6    D(5,1,6,47)          -178.5055         estimate D2E/DX2                !
 ! D7    D(49,1,6,10)         -179.4879         estimate D2E/DX2                !
 ! D8    D(49,1,6,47)            0.76           estimate D2E/DX2                !
 ! D9    D(5,1,49,2)             0.946          estimate D2E/DX2                !
 ! D10   D(5,1,49,52)          179.2137         estimate D2E/DX2                !
 ! D11   D(6,1,49,2)          -178.3074         estimate D2E/DX2                !
 ! D12   D(6,1,49,52)           -0.0397         estimate D2E/DX2                !
 ! D13   D(11,2,3,4)           179.0921         estimate D2E/DX2                !
 ! D14   D(11,2,3,67)           -1.6425         estimate D2E/DX2                !
 ! D15   D(49,2,3,4)            -1.2181         estimate D2E/DX2                !
 ! D16   D(49,2,3,67)          178.0473         estimate D2E/DX2                !
 ! D17   D(3,2,49,1)             0.3331         estimate D2E/DX2                !
 ! D18   D(3,2,49,52)         -177.6503         estimate D2E/DX2                !
 ! D19   D(11,2,49,1)         -179.9616         estimate D2E/DX2                !
 ! D20   D(11,2,49,52)           2.055          estimate D2E/DX2                !
 ! D21   D(2,3,4,5)              0.8494         estimate D2E/DX2                !
 ! D22   D(2,3,4,12)          -179.7185         estimate D2E/DX2                !
 ! D23   D(67,3,4,5)          -178.3838         estimate D2E/DX2                !
 ! D24   D(67,3,4,12)            1.0483         estimate D2E/DX2                !
 ! D25   D(2,3,67,68)          173.1225         estimate D2E/DX2                !
 ! D26   D(2,3,67,71)           -7.2682         estimate D2E/DX2                !
 ! D27   D(4,3,67,68)           -7.6642         estimate D2E/DX2                !
 ! D28   D(4,3,67,71)          171.9451         estimate D2E/DX2                !
 ! D29   D(3,4,5,1)              0.2982         estimate D2E/DX2                !
 ! D30   D(3,4,5,56)           179.3731         estimate D2E/DX2                !
 ! D31   D(12,4,5,1)          -179.1492         estimate D2E/DX2                !
 ! D32   D(12,4,5,56)           -0.0742         estimate D2E/DX2                !
 ! D33   D(1,5,56,55)           -0.0316         estimate D2E/DX2                !
 ! D34   D(1,5,56,61)         -179.5316         estimate D2E/DX2                !
 ! D35   D(4,5,56,55)         -179.0976         estimate D2E/DX2                !
 ! D36   D(4,5,56,61)            1.4023         estimate D2E/DX2                !
 ! D37   D(1,6,10,9)           179.6444         estimate D2E/DX2                !
 ! D38   D(1,6,10,55)           -0.1855         estimate D2E/DX2                !
 ! D39   D(47,6,10,9)           -0.6179         estimate D2E/DX2                !
 ! D40   D(47,6,10,55)         179.5522         estimate D2E/DX2                !
 ! D41   D(1,6,47,7)          -179.7381         estimate D2E/DX2                !
 ! D42   D(1,6,47,52)           -1.0688         estimate D2E/DX2                !
 ! D43   D(10,6,47,7)            0.5171         estimate D2E/DX2                !
 ! D44   D(10,6,47,52)         179.1864         estimate D2E/DX2                !
 ! D45   D(13,7,8,9)           179.7866         estimate D2E/DX2                !
 ! D46   D(13,7,8,14)           -0.1691         estimate D2E/DX2                !
 ! D47   D(47,7,8,9)             0.2895         estimate D2E/DX2                !
 ! D48   D(47,7,8,14)         -179.6662         estimate D2E/DX2                !
 ! D49   D(8,7,47,6)            -0.3403         estimate D2E/DX2                !
 ! D50   D(8,7,47,52)         -178.7747         estimate D2E/DX2                !
 ! D51   D(13,7,47,6)         -179.8573         estimate D2E/DX2                !
 ! D52   D(13,7,47,52)           1.7083         estimate D2E/DX2                !
 ! D53   D(7,8,9,10)            -0.3912         estimate D2E/DX2                !
 ! D54   D(7,8,9,15)          -179.6851         estimate D2E/DX2                !
 ! D55   D(14,8,9,10)          179.5635         estimate D2E/DX2                !
 ! D56   D(14,8,9,15)            0.2696         estimate D2E/DX2                !
 ! D57   D(8,9,10,6)             0.5404         estimate D2E/DX2                !
 ! D58   D(8,9,10,55)         -179.6404         estimate D2E/DX2                !
 ! D59   D(15,9,10,6)          179.8477         estimate D2E/DX2                !
 ! D60   D(15,9,10,55)          -0.3332         estimate D2E/DX2                !
 ! D61   D(6,10,55,56)          -0.9944         estimate D2E/DX2                !
 ! D62   D(6,10,55,62)         179.9303         estimate D2E/DX2                !
 ! D63   D(9,10,55,56)         179.1882         estimate D2E/DX2                !
 ! D64   D(9,10,55,62)           0.1128         estimate D2E/DX2                !
 ! D65   D(21,16,20,19)       -179.3088         estimate D2E/DX2                !
 ! D66   D(21,16,20,58)          0.1098         estimate D2E/DX2                !
 ! D67   D(50,16,20,19)          0.1762         estimate D2E/DX2                !
 ! D68   D(50,16,20,58)        179.5949         estimate D2E/DX2                !
 ! D69   D(20,16,21,25)         -0.2712         estimate D2E/DX2                !
 ! D70   D(20,16,21,48)        179.2267         estimate D2E/DX2                !
 ! D71   D(50,16,21,25)       -179.787          estimate D2E/DX2                !
 ! D72   D(50,16,21,48)         -0.2891         estimate D2E/DX2                !
 ! D73   D(20,16,50,17)          0.2897         estimate D2E/DX2                !
 ! D74   D(20,16,50,52)       -177.5962         estimate D2E/DX2                !
 ! D75   D(21,16,50,17)        179.7919         estimate D2E/DX2                !
 ! D76   D(21,16,50,52)          1.9059         estimate D2E/DX2                !
 ! D77   D(26,17,18,19)        179.4364         estimate D2E/DX2                !
 ! D78   D(26,17,18,27)          0.0525         estimate D2E/DX2                !
 ! D79   D(50,17,18,19)         -0.2874         estimate D2E/DX2                !
 ! D80   D(50,17,18,27)       -179.6713         estimate D2E/DX2                !
 ! D81   D(18,17,50,16)         -0.2388         estimate D2E/DX2                !
 ! D82   D(18,17,50,52)        177.2809         estimate D2E/DX2                !
 ! D83   D(26,17,50,16)       -179.9733         estimate D2E/DX2                !
 ! D84   D(26,17,50,52)         -2.4536         estimate D2E/DX2                !
 ! D85   D(17,18,19,20)          0.7539         estimate D2E/DX2                !
 ! D86   D(17,18,19,28)       -179.5715         estimate D2E/DX2                !
 ! D87   D(27,18,19,20)       -179.8758         estimate D2E/DX2                !
 ! D88   D(27,18,19,28)         -0.2012         estimate D2E/DX2                !
 ! D89   D(18,19,20,16)         -0.6893         estimate D2E/DX2                !
 ! D90   D(18,19,20,58)        179.9255         estimate D2E/DX2                !
 ! D91   D(28,19,20,16)        179.6319         estimate D2E/DX2                !
 ! D92   D(28,19,20,58)          0.2467         estimate D2E/DX2                !
 ! D93   D(16,20,58,57)          0.0102         estimate D2E/DX2                !
 ! D94   D(16,20,58,63)       -179.517          estimate D2E/DX2                !
 ! D95   D(19,20,58,57)        179.3876         estimate D2E/DX2                !
 ! D96   D(19,20,58,63)         -0.1396         estimate D2E/DX2                !
 ! D97   D(16,21,25,24)       -179.7427         estimate D2E/DX2                !
 ! D98   D(16,21,25,57)          0.3057         estimate D2E/DX2                !
 ! D99   D(48,21,25,24)          0.791          estimate D2E/DX2                !
 ! D100  D(48,21,25,57)       -179.1606         estimate D2E/DX2                !
 ! D101  D(16,21,48,22)        179.7321         estimate D2E/DX2                !
 ! D102  D(16,21,48,52)         -1.475          estimate D2E/DX2                !
 ! D103  D(25,21,48,22)         -0.7861         estimate D2E/DX2                !
 ! D104  D(25,21,48,52)        178.0068         estimate D2E/DX2                !
 ! D105  D(29,22,23,24)       -179.875          estimate D2E/DX2                !
 ! D106  D(29,22,23,30)         -0.2997         estimate D2E/DX2                !
 ! D107  D(48,22,23,24)          0.3152         estimate D2E/DX2                !
 ! D108  D(48,22,23,30)        179.8905         estimate D2E/DX2                !
 ! D109  D(23,22,48,21)          0.2164         estimate D2E/DX2                !
 ! D110  D(23,22,48,52)       -178.3598         estimate D2E/DX2                !
 ! D111  D(29,22,48,21)       -179.6033         estimate D2E/DX2                !
 ! D112  D(29,22,48,52)          1.8205         estimate D2E/DX2                !
 ! D113  D(22,23,24,25)         -0.2903         estimate D2E/DX2                !
 ! D114  D(22,23,24,31)        179.7563         estimate D2E/DX2                !
 ! D115  D(30,23,24,25)       -179.8559         estimate D2E/DX2                !
 ! D116  D(30,23,24,31)          0.1907         estimate D2E/DX2                !
 ! D117  D(23,24,25,21)         -0.233          estimate D2E/DX2                !
 ! D118  D(23,24,25,57)        179.7158         estimate D2E/DX2                !
 ! D119  D(31,24,25,21)        179.7211         estimate D2E/DX2                !
 ! D120  D(31,24,25,57)         -0.3301         estimate D2E/DX2                !
 ! D121  D(21,25,57,58)         -0.1881         estimate D2E/DX2                !
 ! D122  D(21,25,57,64)       -179.9031         estimate D2E/DX2                !
 ! D123  D(24,25,57,58)        179.8639         estimate D2E/DX2                !
 ! D124  D(24,25,57,64)          0.1489         estimate D2E/DX2                !
 ! D125  D(37,32,36,35)       -179.87           estimate D2E/DX2                !
 ! D126  D(37,32,36,53)          0.5966         estimate D2E/DX2                !
 ! D127  D(46,32,36,35)         -0.7722         estimate D2E/DX2                !
 ! D128  D(46,32,36,53)        179.6944         estimate D2E/DX2                !
 ! D129  D(36,32,37,41)         -0.6856         estimate D2E/DX2                !
 ! D130  D(36,32,37,51)       -179.7734         estimate D2E/DX2                !
 ! D131  D(46,32,37,41)       -179.8395         estimate D2E/DX2                !
 ! D132  D(46,32,37,51)          1.0728         estimate D2E/DX2                !
 ! D133  D(36,32,46,33)          0.6284         estimate D2E/DX2                !
 ! D134  D(36,32,46,52)       -179.3918         estimate D2E/DX2                !
 ! D135  D(37,32,46,33)        179.7528         estimate D2E/DX2                !
 ! D136  D(37,32,46,52)         -0.2675         estimate D2E/DX2                !
 ! D137  D(42,33,34,35)        179.7273         estimate D2E/DX2                !
 ! D138  D(42,33,34,65)         -0.1893         estimate D2E/DX2                !
 ! D139  D(46,33,34,35)          0.0275         estimate D2E/DX2                !
 ! D140  D(46,33,34,65)       -179.8891         estimate D2E/DX2                !
 ! D141  D(34,33,46,32)         -0.2381         estimate D2E/DX2                !
 ! D142  D(34,33,46,52)        179.7856         estimate D2E/DX2                !
 ! D143  D(42,33,46,32)       -179.9492         estimate D2E/DX2                !
 ! D144  D(42,33,46,52)          0.0745         estimate D2E/DX2                !
 ! D145  D(33,34,35,36)         -0.1839         estimate D2E/DX2                !
 ! D146  D(33,34,35,43)       -179.8334         estimate D2E/DX2                !
 ! D147  D(65,34,35,36)        179.7305         estimate D2E/DX2                !
 ! D148  D(65,34,35,43)          0.0811         estimate D2E/DX2                !
 ! D149  D(34,35,36,32)          0.5287         estimate D2E/DX2                !
 ! D150  D(34,35,36,53)       -179.9641         estimate D2E/DX2                !
 ! D151  D(43,35,36,32)       -179.8165         estimate D2E/DX2                !
 ! D152  D(43,35,36,53)         -0.3092         estimate D2E/DX2                !
 ! D153  D(32,36,53,54)         -0.2537         estimate D2E/DX2                !
 ! D154  D(32,36,53,60)        179.7325         estimate D2E/DX2                !
 ! D155  D(35,36,53,54)       -179.7524         estimate D2E/DX2                !
 ! D156  D(35,36,53,60)          0.2338         estimate D2E/DX2                !
 ! D157  D(32,37,41,40)       -179.6062         estimate D2E/DX2                !
 ! D158  D(32,37,41,54)          0.4125         estimate D2E/DX2                !
 ! D159  D(51,37,41,40)         -0.5773         estimate D2E/DX2                !
 ! D160  D(51,37,41,54)        179.4414         estimate D2E/DX2                !
 ! D161  D(32,37,51,38)        179.7987         estimate D2E/DX2                !
 ! D162  D(32,37,51,52)         -1.317          estimate D2E/DX2                !
 ! D163  D(41,37,51,38)          0.7362         estimate D2E/DX2                !
 ! D164  D(41,37,51,52)        179.6205         estimate D2E/DX2                !
 ! D165  D(44,38,39,40)        179.8801         estimate D2E/DX2                !
 ! D166  D(44,38,39,66)         -0.3334         estimate D2E/DX2                !
 ! D167  D(51,38,39,40)          0.3191         estimate D2E/DX2                !
 ! D168  D(51,38,39,66)       -179.8944         estimate D2E/DX2                !
 ! D169  D(39,38,51,37)         -0.5947         estimate D2E/DX2                !
 ! D170  D(39,38,51,52)       -179.2986         estimate D2E/DX2                !
 ! D171  D(44,38,51,37)        179.823          estimate D2E/DX2                !
 ! D172  D(44,38,51,52)          1.1192         estimate D2E/DX2                !
 ! D173  D(38,39,40,41)         -0.156          estimate D2E/DX2                !
 ! D174  D(38,39,40,45)       -179.7499         estimate D2E/DX2                !
 ! D175  D(66,39,40,41)       -179.9372         estimate D2E/DX2                !
 ! D176  D(66,39,40,45)          0.469          estimate D2E/DX2                !
 ! D177  D(39,40,41,37)          0.2759         estimate D2E/DX2                !
 ! D178  D(39,40,41,54)       -179.744          estimate D2E/DX2                !
 ! D179  D(45,40,41,37)        179.8749         estimate D2E/DX2                !
 ! D180  D(45,40,41,54)         -0.145          estimate D2E/DX2                !
 ! D181  D(37,41,54,53)         -0.0657         estimate D2E/DX2                !
 ! D182  D(37,41,54,59)        179.8312         estimate D2E/DX2                !
 ! D183  D(40,41,54,53)        179.9544         estimate D2E/DX2                !
 ! D184  D(40,41,54,59)         -0.1487         estimate D2E/DX2                !
 ! D185  D(32,46,52,47)         87.3276         estimate D2E/DX2                !
 ! D186  D(32,46,52,48)       -175.9442         estimate D2E/DX2                !
 ! D187  D(32,46,52,50)        -95.6813         estimate D2E/DX2                !
 ! D188  D(32,46,52,51)         -0.3291         estimate D2E/DX2                !
 ! D189  D(33,46,52,47)        -92.695          estimate D2E/DX2                !
 ! D190  D(33,46,52,48)          4.0332         estimate D2E/DX2                !
 ! D191  D(33,46,52,50)         84.2961         estimate D2E/DX2                !
 ! D192  D(33,46,52,51)        179.6483         estimate D2E/DX2                !
 ! D193  D(6,47,52,46)        -175.0973         estimate D2E/DX2                !
 ! D194  D(6,47,52,48)          88.0494         estimate D2E/DX2                !
 ! D195  D(6,47,52,49)           0.7931         estimate D2E/DX2                !
 ! D196  D(6,47,52,51)         -95.6353         estimate D2E/DX2                !
 ! D197  D(7,47,52,46)           3.4169         estimate D2E/DX2                !
 ! D198  D(7,47,52,48)         -93.4364         estimate D2E/DX2                !
 ! D199  D(7,47,52,49)         179.3073         estimate D2E/DX2                !
 ! D200  D(7,47,52,51)          82.8789         estimate D2E/DX2                !
 ! D201  D(21,48,52,46)         91.3897         estimate D2E/DX2                !
 ! D202  D(21,48,52,47)       -172.4457         estimate D2E/DX2                !
 ! D203  D(21,48,52,49)        -92.8259         estimate D2E/DX2                !
 ! D204  D(21,48,52,50)          1.8968         estimate D2E/DX2                !
 ! D205  D(22,48,52,46)        -89.9698         estimate D2E/DX2                !
 ! D206  D(22,48,52,47)          6.1948         estimate D2E/DX2                !
 ! D207  D(22,48,52,49)         85.8146         estimate D2E/DX2                !
 ! D208  D(22,48,52,50)       -179.4627         estimate D2E/DX2                !
 ! D209  D(1,49,52,47)          -0.4021         estimate D2E/DX2                !
 ! D210  D(1,49,52,48)         -96.8607         estimate D2E/DX2                !
 ! D211  D(1,49,52,50)        -176.9628         estimate D2E/DX2                !
 ! D212  D(1,49,52,51)          87.1564         estimate D2E/DX2                !
 ! D213  D(2,49,52,47)         177.6815         estimate D2E/DX2                !
 ! D214  D(2,49,52,48)          81.2229         estimate D2E/DX2                !
 ! D215  D(2,49,52,50)           1.1209         estimate D2E/DX2                !
 ! D216  D(2,49,52,51)         -94.7599         estimate D2E/DX2                !
 ! D217  D(16,50,52,46)        -98.2514         estimate D2E/DX2                !
 ! D218  D(16,50,52,48)         -2.0487         estimate D2E/DX2                !
 ! D219  D(16,50,52,49)         85.5512         estimate D2E/DX2                !
 ! D220  D(16,50,52,51)       -177.8972         estimate D2E/DX2                !
 ! D221  D(17,50,52,46)         84.1157         estimate D2E/DX2                !
 ! D222  D(17,50,52,48)       -179.6816         estimate D2E/DX2                !
 ! D223  D(17,50,52,49)        -92.0817         estimate D2E/DX2                !
 ! D224  D(17,50,52,51)          4.47           estimate D2E/DX2                !
 ! D225  D(37,51,52,46)          0.8922         estimate D2E/DX2                !
 ! D226  D(37,51,52,47)        -94.8776         estimate D2E/DX2                !
 ! D227  D(37,51,52,49)       -174.5302         estimate D2E/DX2                !
 ! D228  D(37,51,52,50)         90.4713         estimate D2E/DX2                !
 ! D229  D(38,51,52,46)        179.6519         estimate D2E/DX2                !
 ! D230  D(38,51,52,47)         83.8821         estimate D2E/DX2                !
 ! D231  D(38,51,52,49)          4.2295         estimate D2E/DX2                !
 ! D232  D(38,51,52,50)        -90.7691         estimate D2E/DX2                !
 ! D233  D(36,53,54,41)         -0.0138         estimate D2E/DX2                !
 ! D234  D(36,53,54,59)       -179.909          estimate D2E/DX2                !
 ! D235  D(60,53,54,41)       -179.9996         estimate D2E/DX2                !
 ! D236  D(60,53,54,59)          0.1052         estimate D2E/DX2                !
 ! D237  D(10,55,56,5)           1.1068         estimate D2E/DX2                !
 ! D238  D(10,55,56,61)       -179.4045         estimate D2E/DX2                !
 ! D239  D(62,55,56,5)        -179.8411         estimate D2E/DX2                !
 ! D240  D(62,55,56,61)         -0.3524         estimate D2E/DX2                !
 ! D241  D(25,57,58,20)          0.0293         estimate D2E/DX2                !
 ! D242  D(25,57,58,63)        179.5467         estimate D2E/DX2                !
 ! D243  D(64,57,58,20)        179.7366         estimate D2E/DX2                !
 ! D244  D(64,57,58,63)         -0.746          estimate D2E/DX2                !
 ! D245  D(3,67,68,69)          -1.2806         estimate D2E/DX2                !
 ! D246  D(3,67,68,70)         179.453          estimate D2E/DX2                !
 ! D247  D(71,67,68,69)        179.122          estimate D2E/DX2                !
 ! D248  D(71,67,68,70)         -0.1444         estimate D2E/DX2                !
 ! D249  D(3,67,71,72)         -56.0248         estimate D2E/DX2                !
 ! D250  D(3,67,71,73)          63.772          estimate D2E/DX2                !
 ! D251  D(3,67,71,74)        -175.9099         estimate D2E/DX2                !
 ! D252  D(68,67,71,72)        123.5882         estimate D2E/DX2                !
 ! D253  D(68,67,71,73)       -116.615          estimate D2E/DX2                !
 ! D254  D(68,67,71,74)          3.7031         estimate D2E/DX2                !
 --------------------------------------------------------------------------------
 Trust Radius=3.00D-01 FncErr=5.00D-06 GrdErr=5.00D-06 EigMax=2.50D+02 EigMin=1.00D-04
 Number of steps in this run=    444 maximum allowed number of steps=    444.
 GradGradGradGradGradGradGradGradGradGradGradGradGradGradGradGradGradGrad

 Leave Link  103 at Mon Jan  8 11:01:28 2024, MaxMem=  2831155200 cpu:               0.0 elap:               0.0
 (Enter /opt/software/packages/g16/l202.exe)
 Symmetry turned off by external request.
 Stoichiometry    C39H28N6Ru
                          Input orientation:                          
 ---------------------------------------------------------------------
 Center     Atomic      Atomic             Coordinates (Angstroms)
 Number     Number       Type             X           Y           Z
 ---------------------------------------------------------------------
      1          6           0       -1.653032   -2.058588    0.247926
      2          6           0       -2.420426   -0.312895   -1.073897
      3          6           0       -3.659769   -0.950324   -1.324130
      4          6           0       -3.847436   -2.218713   -0.751470
      5          6           0       -2.839359   -2.800678    0.047437
      6          6           0       -0.608285   -2.566184    1.079596
      7          6           0        1.484638   -2.219251    2.010690
      8          6           0        1.435722   -3.468952    2.653648
      9          6           0        0.326833   -4.284002    2.495269
     10          6           0       -0.742413   -3.834272    1.691463
     11          1           0       -2.200132    0.665627   -1.498303
     12          1           0       -4.769505   -2.771412   -0.902347
     13          1           0        2.346902   -1.560673    2.124932
     14          1           0        2.279545   -3.777562    3.272472
     15          1           0        0.259868   -5.257330    2.986979
     16          6           0       -0.687055    2.695458   -0.095916
     17          6           0        0.326220    2.080547   -2.092792
     18          6           0       -0.033767    3.312794   -2.679464
     19          6           0       -0.744654    4.246224   -1.947756
     20          6           0       -1.086755    3.950597   -0.606025
     21          6           0       -1.012535    2.324624    1.248519
     22          6           0       -0.887773    0.711972    2.914241
     23          6           0       -1.585982    1.538233    3.802454
     24          6           0       -2.014680    2.789279    3.393213
     25          6           0       -1.731369    3.216858    2.073896
     26          1           0        0.878186    1.330591   -2.657915
     27          1           0        0.249808    3.506575   -3.716969
     28          1           0       -1.038104    5.201004   -2.385190
     29          1           0       -0.538347   -0.283537    3.210164
     30          1           0       -1.788839    1.174687    4.812360
     31          1           0       -2.563266    3.445199    4.069623
     32          6           0        3.241150    0.197547   -0.202666
     33          6           0        2.661807    1.431344    1.673396
     34          6           0        4.006910    1.788515    1.883034
     35          6           0        4.987642    1.329356    1.019705
     36          6           0        4.615433    0.498474   -0.065163
     37          6           0        2.795455   -0.639471   -1.276095
     38          6           0        0.992891   -1.659007   -2.341619
     39          6           0        1.848360   -2.213739   -3.309346
     40          6           0        3.209494   -1.966127   -3.245172
     41          6           0        3.718084   -1.155546   -2.208054
     42          1           0        1.880959    1.779082    2.343311
     43          1           0        6.038685    1.592117    1.165197
     44          1           0       -0.082787   -1.832169   -2.363772
     45          1           0        3.894566   -2.385573   -3.992145
     46          7           0        2.285716    0.654732    0.660029
     47          7           0        0.489252   -1.778924    1.248101
     48          7           0       -0.605150    1.084974    1.666668
     49          7           0       -1.457420   -0.836983   -0.319632
     50          7           0        0.009301    1.775323   -0.839895
     51          7           0        1.454436   -0.882143   -1.347672
     52         44           0        0.368306    0.011159    0.182210
     53          6           0        5.543526   -0.037226   -1.023050
     54          6           0        5.110132   -0.829711   -2.049266
     55          6           0       -1.953758   -4.587402    1.455514
     56          6           0       -2.961780   -4.089561    0.678925
     57          6           0       -2.130505    4.489697    1.537104
     58          6           0       -1.819432    4.840352    0.249159
     59          1           0        5.824404   -1.232438   -2.770349
     60          1           0        6.595237    0.205318   -0.908225
     61          1           0       -3.871728   -4.661335    0.516816
     62          1           0       -2.050064   -5.566209    1.930155
     63          1           0       -2.132938    5.806333   -0.153029
     64          1           0       -2.683646    5.170887    2.184292
     65          1           0        4.254586    2.425675    2.730976
     66          1           0        1.422180   -2.834697   -4.094411
     67          6           0       -4.685055   -0.261238   -2.144707
     68          6           0       -5.821650   -0.881163   -2.522976
     69          1           0       -6.063537   -1.931287   -2.275506
     70          1           0       -6.567739   -0.343566   -3.123091
     71          6           0       -4.417186    1.183891   -2.543347
     72          1           0       -4.232708    1.819183   -1.652303
     73          1           0       -3.529855    1.266681   -3.195790
     74          1           0       -5.277072    1.608015   -3.085432
 ---------------------------------------------------------------------
 Rotational constants (GHZ):           0.0894804           0.0761109           0.0626859
 Leave Link  202 at Mon Jan  8 11:01:28 2024, MaxMem=  2831155200 cpu:               0.0 elap:               0.0
 (Enter /opt/software/packages/g16/l301.exe)
 Standard basis: def2SVP (5D, 7F)
 Ernie: Thresh=  0.10000D-02 Tol=  0.10000D-05 Strict=F.
   801 basis functions,  1386 primitive gaussians,   851 cartesian basis functions
   159 alpha electrons      159 beta electrons
       nuclear repulsion energy      6032.6394392221 Hartrees.
 IExCor=  402 DFT=T Ex+Corr=B3LYP ExCW=0 ScaHFX=  0.200000
 ScaDFX=  0.800000  0.720000  1.000000  0.810000 ScalE2=  1.000000  1.000000
 IRadAn=      5 IRanWt=     -1 IRanGd=            0 ICorTp=0 IEmpDi=141
 NAtoms=   74 NActive=   74 NUniq=   74 SFac= 1.00D+00 NAtFMM=   60 NAOKFM=T Big=T
 Integral buffers will be    131072 words long.
 Raffenetti 2 integral format.
 Two-electron integral symmetry is turned off.
 R6Disp:  Grimme-D3(BJ) Dispersion energy=       -0.2305279682 Hartrees.
 Nuclear repulsion after empirical dispersion term =     6032.4089112539 Hartrees.
 ------------------------------------------------------------------------------
 Polarizable Continuum Model (PCM)
 =================================
 Model                : PCM.
 Atomic radii         : SMD-Coulomb.
 Polarization charges : Total charges.
 Charge compensation  : None.
 Solution method      : On-the-fly selection.
 Cavity type          : VdW (van der Waals Surface) (Alpha=1.000).
 Cavity algorithm     : GePol (No added spheres)
                        Default sphere list used, NSphG=   74.
                        Lebedev-Laikov grids with approx.  5.0 points / Ang**2.
                        Smoothing algorithm: York/Karplus (Gamma=1.0000).
                        Polarization charges: spherical gaussians, with
                                              point-specific exponents (IZeta= 3).
                        Self-potential: point-specific (ISelfS= 7).
                        Self-field    : sphere-specific E.n sum rule (ISelfD= 2).
 1st derivatives      : Analytical E(r).r(x)/FMM algorithm (CHGder, D1EAlg=3).
                        Cavity 1st derivative terms included.
 Solvent              : n,n-DiMethylFormamide, Eps=  37.219000 Eps(inf)=   2.046330
 ------------------------------------------------------------------------------
 GePol: Number of generator spheres                  =      74
 GePol: Total number of spheres                      =      74
 GePol: Number of exposed spheres                    =      73 ( 98.65%)
 GePol: Number of points                             =    5357
 GePol: Average weight of points                     =       0.11
 GePol: Minimum weight of points                     =   0.13D-09
 GePol: Maximum weight of points                     =    0.17992
 GePol: Number of points with low weight             =     388
 GePol: Fraction of low-weight points (<1% of avg)   =       7.24%
 GePol: Cavity surface area                          =    569.466 Ang**2
 GePol: Cavity volume                                =    596.760 Ang**3
 ------------------------------------------------------------------------------
 Atomic radii for non-electrostatic terms: SMD-CDS.
 ------------------------------------------------------------------------------
 PCM non-electrostatic energy =        -0.0096791422 Hartrees.
 Nuclear repulsion after PCM non-electrostatic terms =     6032.3992321117 Hartrees.
 Leave Link  301 at Mon Jan  8 11:01:28 2024, MaxMem=  2831155200 cpu:               0.1 elap:               0.1
 (Enter /opt/software/packages/g16/l302.exe)
 NPDir=0 NMtPBC=     1 NCelOv=     1 NCel=       1 NClECP=     1 NCelD=      1
         NCelK=      1 NCelE2=     1 NClLst=     1 CellRange=     0.0.
 One-electron integrals computed using PRISM.
   1 Symmetry operations used in ECPInt.
 ECPInt:  NShTT=   66795 NPrTT=  245334 LenC2=   56229 LenP2D=  131560.
 LDataN:  DoStor=T MaxTD1= 7 Len=  274
 NBasis=   801 RedAO= T EigKep=  1.54D-04  NBF=   801
 NBsUse=   801 1.00D-06 EigRej= -1.00D+00 NBFU=   801
 Precomputing XC quadrature grid using
 IXCGrd= 4 IRadAn=           5 IRanWt=          -1 IRanGd=           0 AccXCQ= 0.00D+00.
 Defaulting to unpruned grid for atomic number  44.
 Generated NRdTot=       0 NPtTot=           0 NUsed=           0 NTot=          32
 NSgBfM=   835   835   835   835   835 MxSgAt=    74 MxSgA2=    74.
 Leave Link  302 at Mon Jan  8 11:01:29 2024, MaxMem=  2831155200 cpu:              16.4 elap:               1.7
 (Enter /opt/software/packages/g16/l303.exe)
 DipDrv:  MaxL=1.
 Leave Link  303 at Mon Jan  8 11:01:30 2024, MaxMem=  2831155200 cpu:               0.4 elap:               0.1
 (Enter /opt/software/packages/g16/l401.exe)
 ExpMin= 3.92D-02 ExpMax= 1.71D+03 ExpMxC= 2.58D+02 IAcc=3 IRadAn=         5 AccDes= 0.00D+00
 Harris functional with IExCor=  402 and IRadAn=       5 diagonalized for initial guess.
 HarFok:  IExCor=  402 AccDes= 0.00D+00 IRadAn=         5 IDoV= 1 UseB2=F ITyADJ=14
 ICtDFT=  3500011 ScaDFX=  1.000000  1.000000  1.000000  1.000000
 Defaulting to unpruned grid for atomic number  44.
 FoFCou: FMM=F IPFlag=           0 FMFlag=      100000 FMFlg1=        2001
         NFxFlg=           0 DoJE=T BraDBF=F KetDBF=T FulRan=T
         wScrn=  0.000000 ICntrl=       500 IOpCl=  0 I1Cent=   200000004 NGrid=           0
         NMat0=    1 NMatS0=      1 NMatT0=    0 NMatD0=    1 NMtDS0=    0 NMtDT0=    0
 Symmetry not used in FoFCou.
 Harris En= -1924.95814433743    
 JPrj=0 DoOrth=F DoCkMO=F.
 Leave Link  401 at Mon Jan  8 11:01:35 2024, MaxMem=  2831155200 cpu:              83.0 elap:               5.8
 (Enter /opt/software/packages/g16/l502.exe)
 Two-electron integral symmetry not used.
 Closed shell SCF:
 Using DIIS extrapolation, IDIIS=  1040.
 NGot=  2831155200 LenX=  2829684469 LenY=  2828959417
 Requested convergence on RMS density matrix=1.00D-08 within 128 cycles.
 Requested convergence on MAX density matrix=1.00D-06.
 Requested convergence on             energy=1.00D-06.
 No special actions if energy rises.
 Fock matrices will be formed incrementally for  20 cycles.

 Cycle   1  Pass 1  IDiag  1:
 FoFJK:  IHMeth= 1 ICntrl=       0 DoSepK=F KAlg= 0 I1Cent=           0 FoldK=F
 IRaf= 970000000 NMat=       1 IRICut=       1 DoRegI=T DoRafI=F ISym2E= 0 IDoP0=0 IntGTp=1.
 FoFCou: FMM=T IPFlag=           0 FMFlag=      100000 FMFlg1=        2001
         NFxFlg=           0 DoJE=F BraDBF=F KetDBF=F FulRan=T
         wScrn=  0.000000 ICntrl=         0 IOpCl=  0 I1Cent=           0 NGrid=           0
         NMat0=    1 NMatS0=      1 NMatT0=    0 NMatD0=    1 NMtDS0=    0 NMtDT0=    0
 Symmetry not used in FoFCou.
 FMM levels:  10  Number of levels for PrismC:   9
 Defaulting to unpruned grid for atomic number  44.
 Defaulting to unpruned grid for atomic number  44.
 Defaulting to unpruned grid for atomic number  44.
 Defaulting to unpruned grid for atomic number  44.
 Defaulting to unpruned grid for atomic number  44.
 Defaulting to unpruned grid for atomic number  44.
 Defaulting to unpruned grid for atomic number  44.
 Defaulting to unpruned grid for atomic number  44.
 Defaulting to unpruned grid for atomic number  44.
 Defaulting to unpruned grid for atomic number  44.
 Defaulting to unpruned grid for atomic number  44.
 Defaulting to unpruned grid for atomic number  44.
 Defaulting to unpruned grid for atomic number  44.
 Defaulting to unpruned grid for atomic number  44.
 Defaulting to unpruned grid for atomic number  44.
 Defaulting to unpruned grid for atomic number  44.
 Inv3:  Mode=1 IEnd=    86092347.
 Iteration    1 A*A^-1 deviation from unit magnitude is 7.11D-15 for   5345.
 Iteration    1 A*A^-1 deviation from orthogonality  is 4.69D-15 for   5345   5155.
 Iteration    1 A^-1*A deviation from unit magnitude is 7.55D-15 for   5357.
 Iteration    1 A^-1*A deviation from orthogonality  is 8.39D-14 for   3705   3652.
 E= -1920.78572118802    
 DIIS: error= 6.38D-02 at cycle   1 NSaved=   1.
 NSaved= 1 IEnMin= 1 EnMin= -1920.78572118802     IErMin= 1 ErrMin= 6.38D-02
 ErrMax= 6.38D-02  0.00D+00 EMaxC= 1.00D-01 BMatC= 3.76D+00 BMatP= 3.76D+00
 IDIUse=3 WtCom= 3.62D-01 WtEn= 6.38D-01
 Coeff-Com:  0.100D+01
 Coeff-En:   0.100D+01
 Coeff:      0.100D+01
 Gap=     0.175 Goal=   None    Shift=    0.000
 GapD=    0.175 DampG=1.000 DampE=0.250 DampFc=0.2500 IDamp=-1.
 Damping current iteration by 2.50D-01
 RMSDP=2.74D-02 MaxDP=4.78D+00              OVMax= 9.14D-01

 Cycle   2  Pass 1  IDiag  1:
 RMSU=  6.86D-03    CP:  1.00D+00
 E= -1922.11965477498     Delta-E=       -1.333933586964 Rises=F Damp=T
 DIIS: error= 1.81D-02 at cycle   2 NSaved=   2.
 NSaved= 2 IEnMin= 2 EnMin= -1922.11965477498     IErMin= 2 ErrMin= 1.81D-02
 ErrMax= 1.81D-02  0.00D+00 EMaxC= 1.00D-01 BMatC= 4.54D-01 BMatP= 3.76D+00
 IDIUse=3 WtCom= 8.19D-01 WtEn= 1.81D-01
 Coeff-Com: -0.239D-01 0.102D+01
 Coeff-En:   0.296D+00 0.704D+00
 Coeff:      0.338D-01 0.966D+00
 Gap=     0.011 Goal=   None    Shift=    0.000
 RMSDP=7.36D-03 MaxDP=1.07D+00 DE=-1.33D+00 OVMax= 7.83D-01

 Cycle   3  Pass 1  IDiag  1:
 RMSU=  3.61D-03    CP:  9.05D-01  8.37D-02
 E= -1923.14685210261     Delta-E=       -1.027197327624 Rises=F Damp=F
 DIIS: error= 6.64D-02 at cycle   3 NSaved=   3.
 NSaved= 3 IEnMin= 3 EnMin= -1923.14685210261     IErMin= 2 ErrMin= 1.81D-02
 ErrMax= 6.64D-02  0.00D+00 EMaxC= 1.00D-01 BMatC= 2.38D+00 BMatP= 4.54D-01
 IDIUse=2 WtCom= 0.00D+00 WtEn= 1.00D+00
 EnCoef did   100 forward-backward iterations
 Coeff-En:   0.355D+00 0.827D-02 0.637D+00
 Coeff:      0.355D+00 0.827D-02 0.637D+00
 Gap=     0.211 Goal=   None    Shift=    0.000
 RMSDP=3.57D-03 MaxDP=2.93D-01 DE=-1.03D+00 OVMax= 3.66D-01

 Cycle   4  Pass 1  IDiag  1:
 RMSU=  3.15D-03    CP:  9.13D-01  1.14D-01  5.39D-01
 E= -1922.49798892823     Delta-E=        0.648863174380 Rises=F Damp=F
 DIIS: error= 5.07D-02 at cycle   4 NSaved=   4.
 NSaved= 4 IEnMin= 3 EnMin= -1923.14685210261     IErMin= 2 ErrMin= 1.81D-02
 ErrMax= 5.07D-02  0.00D+00 EMaxC= 1.00D-01 BMatC= 2.78D+00 BMatP= 4.54D-01
 IDIUse=2 WtCom= 0.00D+00 WtEn= 1.00D+00
 EnCoef did     3 forward-backward iterations
 Coeff-En:   0.266D+00 0.000D+00 0.438D+00 0.296D+00
 Coeff:      0.266D+00 0.000D+00 0.438D+00 0.296D+00
 Gap=     0.245 Goal=   None    Shift=    0.000
 RMSDP=2.26D-03 MaxDP=1.48D-01 DE= 6.49D-01 OVMax= 3.51D-01

 Cycle   5  Pass 1  IDiag  1:
 RMSU=  9.68D-04    CP:  9.14D-01  4.45D-02  6.53D-01  3.83D-01
 E= -1925.32134359839     Delta-E=       -2.823354670161 Rises=F Damp=F
 DIIS: error= 3.98D-03 at cycle   5 NSaved=   5.
 NSaved= 5 IEnMin= 5 EnMin= -1925.32134359839     IErMin= 5 ErrMin= 3.98D-03
 ErrMax= 3.98D-03  0.00D+00 EMaxC= 1.00D-01 BMatC= 2.97D-02 BMatP= 4.54D-01
 IDIUse=3 WtCom= 9.60D-01 WtEn= 3.98D-02
 Coeff-Com:  0.134D-01 0.326D-01 0.990D-01 0.734D-02 0.848D+00
 Coeff-En:   0.000D+00 0.000D+00 0.000D+00 0.000D+00 0.100D+01
 Coeff:      0.129D-01 0.313D-01 0.951D-01 0.705D-02 0.854D+00
 Gap=     0.125 Goal=   None    Shift=    0.000
 RMSDP=4.37D-04 MaxDP=5.22D-02 DE=-2.82D+00 OVMax= 6.88D-02

 Cycle   6  Pass 1  IDiag  1:
 RMSU=  3.34D-04    CP:  9.15D-01  4.48D-02  7.01D-01  3.33D-01  8.39D-01
 E= -1925.33794907644     Delta-E=       -0.016605478053 Rises=F Damp=F
 DIIS: error= 2.50D-03 at cycle   6 NSaved=   6.
 NSaved= 6 IEnMin= 6 EnMin= -1925.33794907644     IErMin= 6 ErrMin= 2.50D-03
 ErrMax= 2.50D-03  0.00D+00 EMaxC= 1.00D-01 BMatC= 1.22D-02 BMatP= 2.97D-02
 IDIUse=3 WtCom= 9.75D-01 WtEn= 2.50D-02
 Coeff-Com:  0.111D-02-0.112D-03 0.199D-01-0.144D-01 0.465D+00 0.529D+00
 Coeff-En:   0.000D+00 0.000D+00 0.000D+00 0.000D+00 0.297D+00 0.703D+00
 Coeff:      0.108D-02-0.109D-03 0.194D-01-0.141D-01 0.461D+00 0.533D+00
 Gap=     0.122 Goal=   None    Shift=    0.000
 RMSDP=1.65D-04 MaxDP=1.28D-02 DE=-1.66D-02 OVMax= 2.60D-02

 Cycle   7  Pass 1  IDiag  1:
 RMSU=  1.08D-04    CP:  9.14D-01  4.25D-02  6.96D-01  3.28D-01  9.10D-01
                    CP:  7.03D-01
 E= -1925.34963936372     Delta-E=       -0.011690287274 Rises=F Damp=F
 DIIS: error= 6.91D-04 at cycle   7 NSaved=   7.
 NSaved= 7 IEnMin= 7 EnMin= -1925.34963936372     IErMin= 7 ErrMin= 6.91D-04
 ErrMax= 6.91D-04  0.00D+00 EMaxC= 1.00D-01 BMatC= 7.07D-04 BMatP= 1.22D-02
 IDIUse=3 WtCom= 9.93D-01 WtEn= 6.91D-03
 Coeff-Com:  0.658D-03-0.616D-02-0.216D-02-0.768D-02 0.152D+00 0.267D+00
 Coeff-Com:  0.597D+00
 Coeff-En:   0.000D+00 0.000D+00 0.000D+00 0.000D+00 0.000D+00 0.000D+00
 Coeff-En:   0.100D+01
 Coeff:      0.654D-03-0.612D-02-0.215D-02-0.763D-02 0.151D+00 0.265D+00
 Coeff:      0.599D+00
 Gap=     0.121 Goal=   None    Shift=    0.000
 RMSDP=4.66D-05 MaxDP=4.39D-03 DE=-1.17D-02 OVMax= 6.41D-03

 Cycle   8  Pass 1  IDiag  1:
 RMSU=  3.39D-05    CP:  9.14D-01  4.26D-02  6.95D-01  3.33D-01  9.14D-01
                    CP:  7.35D-01  7.71D-01
 E= -1925.35027151953     Delta-E=       -0.000632155818 Rises=F Damp=F
 DIIS: error= 2.02D-04 at cycle   8 NSaved=   8.
 NSaved= 8 IEnMin= 8 EnMin= -1925.35027151953     IErMin= 8 ErrMin= 2.02D-04
 ErrMax= 2.02D-04  0.00D+00 EMaxC= 1.00D-01 BMatC= 9.21D-05 BMatP= 7.07D-04
 IDIUse=3 WtCom= 9.98D-01 WtEn= 2.02D-03
 Coeff-Com:  0.650D-03-0.264D-02-0.297D-02-0.378D-02 0.427D-01 0.963D-01
 Coeff-Com:  0.322D+00 0.548D+00
 Coeff-En:   0.000D+00 0.000D+00 0.000D+00 0.000D+00 0.000D+00 0.000D+00
 Coeff-En:   0.000D+00 0.100D+01
 Coeff:      0.648D-03-0.264D-02-0.296D-02-0.377D-02 0.426D-01 0.961D-01
 Coeff:      0.321D+00 0.549D+00
 Gap=     0.122 Goal=   None    Shift=    0.000
 RMSDP=1.72D-05 MaxDP=1.86D-03 DE=-6.32D-04 OVMax= 2.35D-03

 Cycle   9  Pass 1  IDiag  1:
 RMSU=  1.46D-05    CP:  9.14D-01  4.26D-02  6.95D-01  3.33D-01  9.14D-01
                    CP:  7.42D-01  8.06D-01  7.64D-01
 E= -1925.35033445752     Delta-E=       -0.000062937984 Rises=F Damp=F
 DIIS: error= 1.58D-04 at cycle   9 NSaved=   9.
 NSaved= 9 IEnMin= 9 EnMin= -1925.35033445752     IErMin= 9 ErrMin= 1.58D-04
 ErrMax= 1.58D-04  0.00D+00 EMaxC= 1.00D-01 BMatC= 3.22D-05 BMatP= 9.21D-05
 IDIUse=3 WtCom= 9.98D-01 WtEn= 1.58D-03
 Coeff-Com:  0.718D-03-0.693D-03-0.176D-02-0.155D-02-0.913D-03 0.448D-02
 Coeff-Com:  0.702D-01 0.353D+00 0.577D+00
 Coeff-En:   0.000D+00 0.000D+00 0.000D+00 0.000D+00 0.000D+00 0.000D+00
 Coeff-En:   0.000D+00 0.192D+00 0.808D+00
 Coeff:      0.717D-03-0.692D-03-0.176D-02-0.155D-02-0.911D-03 0.447D-02
 Coeff:      0.701D-01 0.353D+00 0.577D+00
 Gap=     0.122 Goal=   None    Shift=    0.000
 RMSDP=7.31D-06 MaxDP=6.42D-04 DE=-6.29D-05 OVMax= 9.54D-04

 Cycle  10  Pass 1  IDiag  1:
 RMSU=  4.98D-06    CP:  9.14D-01  4.25D-02  6.95D-01  3.33D-01  9.14D-01
                    CP:  7.46D-01  8.19D-01  8.49D-01  7.45D-01
 E= -1925.35035837911     Delta-E=       -0.000023921592 Rises=F Damp=F
 DIIS: error= 1.10D-04 at cycle  10 NSaved=  10.
 NSaved=10 IEnMin=10 EnMin= -1925.35035837911     IErMin=10 ErrMin= 1.10D-04
 ErrMax= 1.10D-04  0.00D+00 EMaxC= 1.00D-01 BMatC= 8.11D-06 BMatP= 3.22D-05
 IDIUse=3 WtCom= 9.99D-01 WtEn= 1.10D-03
 Coeff-Com:  0.585D-03-0.459D-03-0.849D-03-0.548D-03-0.569D-02-0.167D-01
[...]
      3  -0.788837D-02  0.386250D-01  0.226801D-01 -0.190437D+00  0.761705D+00
      4  -0.242022D-01 -0.106815D+00  0.309733D-01 -0.446927D-01 -0.142914D+00
      5  -0.107241D-03  0.557880D-02 -0.482919D-02 -0.325769D-01 -0.591405D-01
      6   0.493206D-03 -0.355358D-02 -0.236801D-02  0.200095D-01 -0.793682D-01
      7   0.589294D-03  0.878667D-02 -0.251816D-02  0.555617D-02  0.149507D-01
      8  -0.628551D-01 -0.363493D+00 -0.247904D-01  0.254611D+00  0.271396D+00
      9  -0.125035D+00  0.575342D-02 -0.275555D+00 -0.220721D+00  0.206683D+00
     10  -0.657307D+00 -0.434518D+00  0.213657D+00 -0.229607D+00 -0.131527D+00
     11   0.674246D-01  0.560568D-01 -0.330435D-01 -0.132347D+00 -0.231708D-01
     12  -0.130532D-01 -0.583035D-01 -0.426186D-02  0.117872D+00  0.164139D+00
     13   0.317760D-01 -0.895539D-03  0.387504D-01  0.461822D-01 -0.132729D+00
     14  -0.114198D-01  0.216020D-01 -0.483295D-01 -0.638931D-01  0.221513D+00
     15   0.534337D-01 -0.835314D-02 -0.404831D-01  0.349032D-01  0.219230D+00
     16   0.741049D-02  0.454504D-01  0.357813D-01 -0.498908D-01 -0.283970D+00
                 6             7             8             9            10 
      1  -0.192525D+04 -0.192525D+04 -0.192525D+04 -0.192525D+04 -0.192524D+04
      2   0.114987D+00 -0.189929D+00 -0.383944D+00  0.796933D+00 -0.127073D+00
      3  -0.405746D+00 -0.207499D+00 -0.672851D+00 -0.425086D+00  0.850557D+00
      4  -0.435912D-01  0.588372D-01  0.752640D-01 -0.292863D+00  0.687166D-01
      5  -0.130308D-01  0.199273D-01  0.405384D-01 -0.857421D-01  0.144665D-01
      6   0.429512D-01  0.215804D-01  0.715912D-01  0.457118D-01 -0.931504D-01
      7   0.390994D-02 -0.609246D-02 -0.816503D-02  0.316860D-01 -0.737027D-02
      8   0.208108D+00  0.107495D+00  0.122216D+00 -0.226228D+00  0.100429D+00
      9  -0.181530D+00  0.166347D+00  0.396019D+00  0.538100D-01  0.224910D-01
     10   0.912094D-01 -0.436405D-01  0.455747D-02  0.101925D+00 -0.119558D+00
     11  -0.219021D+00  0.422105D-01 -0.336357D-01 -0.464048D+00  0.435752D+00
     12   0.114218D+00 -0.499932D-01 -0.802892D-01  0.341621D+00 -0.186541D+00
     13   0.704102D-01  0.717400D-01  0.461436D-01  0.340343D-01 -0.169205D+00
     14  -0.143143D+00 -0.372666D-01 -0.191246D+00 -0.923601D-01  0.315062D+00
     15  -0.679667D-01  0.769811D-03 -0.150146D+00  0.356492D-01  0.214042D+00
     16   0.425762D-02  0.422398D-01  0.174117D+00 -0.112928D+00 -0.855342D-01
                11            12            13            14            15 
      1  -0.192524D+04 -0.192524D+04 -0.192524D+04 -0.192524D+04 -0.192524D+04
      2   0.988675D+00 -0.985992D+00  0.660725D+00  0.155079D+00  0.192082D+00
      3  -0.219201D-02  0.775363D+00  0.830257D+00  0.313664D+00  0.140192D+00
      4  -0.248809D+00  0.401266D+00 -0.183986D+00 -0.625637D-01  0.458567D-01
      5  -0.108082D+00  0.108925D+00 -0.722545D-01 -0.168831D-01 -0.247010D-01
      6   0.499984D-03 -0.857424D-01 -0.915571D-01 -0.346876D-01 -0.158950D-01
      7   0.280755D-01 -0.440809D-01  0.203187D-01  0.683768D-02 -0.333917D-02
      8   0.220587D-01  0.105555D-01  0.120708D+00  0.747757D-01 -0.330922D+00
      9  -0.596039D-01  0.731138D-01 -0.277865D-01  0.314363D-01 -0.158752D-01
     10  -0.520054D-01 -0.505135D-01 -0.145467D+00 -0.584658D-01  0.101914D+00
     11  -0.485073D+00  0.375385D+00 -0.302768D-01 -0.683164D-01 -0.391459D+00
     12   0.446525D+00 -0.215729D+00  0.297044D-01 -0.605155D-01  0.424123D+00
     13  -0.235150D-01 -0.466164D-01  0.403791D-01  0.587664D-01 -0.504325D-01
     14  -0.173545D-01  0.584423D-01  0.578463D-01 -0.341399D-01 -0.692373D-01
     15   0.148047D+00 -0.367334D-02  0.180571D-01 -0.436470D-01  0.151800D+00
     16  -0.347157D+00 -0.116411D-01 -0.148061D-01  0.553327D-01 -0.498373D+00
                16            17            18            19            20 
      1  -0.192524D+04 -0.192524D+04 -0.192523D+04 -0.192521D+04 -0.192521D+04
      2   0.464433D-01  0.235261D+00 -0.202064D+00  0.103142D+01  0.391223D+00
      3   0.359881D-01  0.256348D-02 -0.122850D+00 -0.541196D+00  0.180266D+00
      4   0.783378D-01  0.866119D+00 -0.139665D-01  0.885387D+00  0.215281D+00
      5  -0.485959D-02 -0.239503D-01  0.243674D-01 -0.133733D+00 -0.503162D-01
      6  -0.767984D-02 -0.228790D-04  0.151623D-01  0.736594D-01 -0.204464D-01
      7  -0.801217D-02 -0.915655D-01  0.136815D-02 -0.116572D+00 -0.344980D-01
      8   0.129832D-01 -0.288305D-01 -0.149406D-01  0.533088D+00  0.182040D+00
      9  -0.392264D+00  0.113454D+00  0.588077D-01 -0.491423D+00 -0.272832D+00
     10  -0.505832D-01 -0.119093D+00  0.390978D-01 -0.619539D+00 -0.257848D+00
     11   0.416272D+00 -0.801845D-01  0.315278D+00  0.141668D+01  0.329208D+00
     12  -0.818820D-01  0.509872D-02  0.366526D+00 -0.831920D+00 -0.162711D+00
     13  -0.302044D+00 -0.212277D-01  0.180899D+00  0.230550D+00 -0.810653D-01
     14   0.387985D+00 -0.548893D-01 -0.563040D-01  0.983556D-01  0.165328D+00
     15   0.354624D+00 -0.170704D+00 -0.173007D+00  0.844770D+00  0.208610D+00
     16  -0.158525D+00  0.434060D-01  0.501376D-01  0.485534D+00  0.350804D-01
                21            22            23            24            25 
      1  -0.192521D+04 -0.192521D+04 -0.192521D+04 -0.192521D+04 -0.192520D+04
      2   0.112292D+00 -0.580357D+00  0.202027D+00 -0.922356D-01 -0.130182D+00
      3  -0.217353D+00  0.410879D+00 -0.557388D-01  0.516317D-01 -0.190073D+00
      4   0.280653D+00 -0.464417D+00  0.128561D+00  0.127082D+00 -0.107948D+00
      5  -0.203596D-01  0.807517D-01 -0.292889D-01  0.239711D-03  0.144528D-01
      6   0.269696D-01 -0.627153D-01  0.460655D-02  0.115858D-02  0.210771D-01
      7  -0.507334D-01  0.664584D-01 -0.182693D-01 -0.141444D-01  0.179629D-01
      8   0.154609D+00 -0.778798D-01  0.102023D+00 -0.228106D-01  0.810754D-01
      9  -0.101018D-01  0.255259D+00 -0.100672D+00  0.578386D-01  0.232446D+00
     10   0.865572D-01  0.291972D+00 -0.120071D+00  0.606765D-01  0.913037D-01
     11   0.155467D+00 -0.605971D+00  0.125981D+00  0.143938D+00 -0.405968D+00
     12  -0.176306D+00  0.240242D+00 -0.185658D+00 -0.101440D+00 -0.207824D+00
     13   0.742481D-01 -0.143041D+00  0.326200D-01 -0.648145D-01  0.349649D-01
     14  -0.611212D-01  0.741988D-01  0.516582D-01  0.254734D-01 -0.425017D-01
     15   0.783347D-01 -0.398263D+00  0.154306D+00  0.192847D+00 -0.205104D+00
     16   0.978639D-01 -0.217485D+00  0.606226D-01  0.190803D+00  0.197278D+00
                26            27            28            29            30 
      1  -0.192520D+04 -0.192520D+04 -0.192520D+04 -0.192520D+04 -0.192520D+04
      2  -0.872225D-01 -0.949491D-01 -0.224669D+00 -0.458760D-01 -0.126051D-01
      3  -0.125101D+00  0.677536D-01 -0.255729D+00 -0.306682D-01  0.985942D-01
      4   0.165050D+00  0.439629D-01 -0.939961D-02  0.220715D-01  0.114034D+00
      5   0.771223D-02  0.143372D-01  0.325804D-01  0.642429D-02  0.461653D-02
      6   0.100351D-01 -0.115318D-01  0.361497D-01  0.279443D-02 -0.159036D-01
      7  -0.225137D-01 -0.927324D-02  0.273149D-02 -0.267740D-02 -0.155215D-01
      8   0.629236D-02 -0.890797D+00  0.159850D+00 -0.850955D+00  0.308421D+00
      9   0.236008D-01  0.570450D+00 -0.208242D+00 -0.109088D+01 -0.913532D-01
     10  -0.119943D+00  0.324114D+00  0.810017D-01  0.257214D+00 -0.104928D+00
     11  -0.110371D+00  0.115398D+00  0.200419D+00 -0.564563D-01  0.294600D+00
     12  -0.182695D-01 -0.207975D-01  0.587090D-01 -0.750361D-01 -0.253737D+00
     13  -0.222830D-01  0.556042D-02  0.202219D+00 -0.150869D-01 -0.670896D-01
     14   0.151722D+00  0.612773D-01 -0.108830D+00 -0.162588D-01  0.125611D+00
     15  -0.755635D-01 -0.773898D-01 -0.239542D+00  0.362845D-01  0.212050D+00
     16   0.903900D-02  0.776164D-02  0.282946D+00 -0.269475D-01  0.303942D-01
                31            32            33            34            35 
      1  -0.192520D+04 -0.192520D+04 -0.192520D+04 -0.192520D+04 -0.192520D+04
      2   0.229281D+00 -0.702362D-01 -0.646490D+00  0.310241D-02 -0.201155D+00
      3   0.227009D-01  0.175724D+00 -0.320104D+00  0.639551D-01 -0.106920D+00
      4  -0.932408D-01  0.596242D-01 -0.181460D+00 -0.736985D-01 -0.217064D-01
      5  -0.361920D-01  0.840034D-02  0.996282D-01 -0.336194D-02  0.285846D-01
      6  -0.325508D-02 -0.257643D-01  0.513595D-01 -0.969283D-02  0.167223D-01
      7   0.149542D-01 -0.106650D-01  0.230851D-01  0.127287D-01  0.343715D-02
      8   0.326036D+00  0.620601D+00 -0.296240D+00  0.975040D-01  0.190527D+00
      9  -0.512464D+00 -0.599486D+00  0.386761D+00 -0.164837D+00  0.432517D+00
     10  -0.117206D+00 -0.351105D+00  0.517473D+00 -0.983831D-02 -0.202146D-01
     11   0.859615D-01  0.109080D+00 -0.737271D+00 -0.151449D-01 -0.114611D+00
     12   0.119033D+00  0.122766D-01 -0.324287D+00  0.307546D-01 -0.108155D+00
     13  -0.221642D-01 -0.574663D-01 -0.171302D-01 -0.135126D+00  0.493395D-01
     14   0.135464D+00  0.124289D+00 -0.521768D+00  0.148261D+00 -0.135184D+00
     15   0.634087D-01 -0.604814D-01 -0.146199D+00  0.664131D-01 -0.142160D+00
     16   0.230510D-01 -0.236137D-03 -0.951524D-01 -0.507414D-01  0.138098D+00
                36            37            38            39            40 
      1  -0.192520D+04 -0.192520D+04 -0.192520D+04 -0.192520D+04 -0.192520D+04
      2  -0.599056D+00 -0.240475D-01  0.140881D+00 -0.207354D+00 -0.461404D+00
      3  -0.231989D+00  0.358383D-01 -0.172332D-02  0.344225D-01 -0.337177D+00
      4  -0.176141D+00  0.198801D+00 -0.271343D-01 -0.301882D+00 -0.302060D+00
      5   0.893005D-01  0.241986D-02 -0.202444D-01  0.316053D-01  0.721765D-01
      6   0.420655D-01 -0.558126D-02  0.937494D-04 -0.460131D-02  0.564328D-01
      7   0.239115D-01 -0.346388D-01  0.744272D-02  0.500512D-01  0.454923D-01
      8  -0.148292D+00 -0.610204D+00 -0.216887D+00  0.351516D+00 -0.444693D+00
      9   0.563376D-01  0.292582D+00 -0.533968D+00  0.202484D+00 -0.226207D+00
     10   0.235987D+00 -0.134104D+01 -0.434626D+00 -0.373117D-01  0.542521D+00
     11  -0.433474D+00 -0.180994D+00  0.522434D+00  0.188332D-01 -0.389707D+00
     12  -0.272734D+00  0.578997D-01  0.143080D+00 -0.389097D+00  0.634149D-01
     13  -0.439526D-01  0.769260D-01 -0.244464D+00  0.103980D+00 -0.136443D+00
     14  -0.333825D+00 -0.162267D+00  0.480606D+00 -0.104689D+00 -0.223493D+00
     15  -0.149859D+00 -0.132750D+00  0.411555D+00 -0.191951D+00  0.775088D-01
     16   0.733705D-01  0.909708D-02 -0.207496D+00  0.392450D+00 -0.287560D+00
                41            42            43            44            45 
      1  -0.192519D+04 -0.192519D+04 -0.192519D+04 -0.192519D+04 -0.192519D+04
      2  -0.470168D+00 -0.133105D+00  0.998562D-01  0.173873D+00  0.529152D+00
      3   0.712371D-02  0.378786D-01 -0.174998D+00  0.237928D+00  0.282923D-01
      4   0.141877D+00 -0.546518D-01  0.292846D+00 -0.477628D-01  0.243893D+00
      5   0.721857D-01  0.200251D-01 -0.153929D-01 -0.293042D-01 -0.836052D-01
      6   0.259969D-02 -0.485714D-02  0.284556D-01 -0.378071D-01 -0.653598D-02
      7  -0.247422D-01  0.907269D-02 -0.461308D-01  0.789084D-02 -0.386512D-01
      8  -0.581631D+00 -0.357117D-01  0.740835D+00  0.287117D-01  0.463748D+00
      9  -0.809531D-02  0.669315D+00 -0.631202D+00 -0.799759D-01 -0.139958D+00
     10   0.400192D+00  0.279156D+00 -0.401533D+00 -0.325096D-01 -0.691876D+00
     11  -0.304016D+00 -0.414431D+00  0.104407D+01  0.961709D-01  0.477801D+00
     12   0.928728D-02  0.211319D+00 -0.709697D+00  0.249491D-01 -0.287686D+00
     13  -0.157422D+00  0.138282D+00 -0.148912D+00 -0.518035D-01  0.252949D-01
     14  -0.170656D+00 -0.204593D+00  0.369861D+00  0.807546D-01  0.480160D-01
     15  -0.105565D-01 -0.381069D+00  0.307764D+00  0.235814D+00  0.298530D+00
     16  -0.209474D+00  0.105215D+00  0.583451D+00 -0.626752D-01  0.928513D-01
                46            47            48            49            50 
      1  -0.192519D+04 -0.192519D+04 -0.192519D+04 -0.192519D+04 -0.192519D+04
      2   0.103180D+01  0.283439D+00  0.232263D+00  0.851289D+00  0.440757D+00
      3  -0.542515D+00 -0.176691D+00 -0.908070D-01 -0.464332D+00 -0.380066D+00
      4   0.727512D+00 -0.165362D+00  0.130498D+00  0.324911D+00  0.194918D+00
      5  -0.161698D+00 -0.448777D-01 -0.382881D-01 -0.137137D+00 -0.713456D-01
      6   0.855865D-01  0.282607D-01  0.140097D-01  0.752658D-01  0.621745D-01
      7  -0.116121D+00  0.267748D-01 -0.231927D-01 -0.521852D-01 -0.297675D-01
      8   0.870172D+00  0.325697D-01 -0.194655D+00  0.460166D+00 -0.173834D+00
      9  -0.867715D+00 -0.500690D-01 -0.544437D+00  0.285196D-01 -0.629777D+00
     10  -0.134725D+01  0.205698D+00 -0.394307D+00 -0.825737D+00 -0.342835D-01
     11   0.124950D+01 -0.302508D+00  0.144841D+00  0.419028D+00  0.131667D+00
     12  -0.820057D+00  0.206286D+00 -0.143846D+00 -0.202407D+00 -0.213928D+00
     13  -0.252371D-01  0.882323D-01 -0.105581D+00  0.120192D+00 -0.149110D+00
     14   0.454359D+00 -0.906357D-01  0.153290D+00  0.276822D-01  0.177150D+00
     15   0.441003D+00 -0.759482D-01  0.226002D+00  0.139738D+00  0.428173D+00
     16   0.682745D+00 -0.223615D+00 -0.296886D-01  0.467883D+00 -0.130150D-02
                51            52            53            54            55 
      1  -0.192519D+04 -0.192519D+04 -0.192519D+04 -0.192519D+04 -0.192519D+04
      2   0.868099D-01 -0.689974D-01  0.174365D+00 -0.481127D-01  0.896286D-01
      3   0.237189D+00 -0.155950D-01  0.211046D+00 -0.174224D+00  0.597322D-01
      4  -0.800993D-01 -0.107797D+00 -0.126064D+00 -0.313826D-01  0.454440D+00
      5  -0.146982D-01  0.113769D-01 -0.282212D-01  0.797631D-02 -0.137355D-01
      6  -0.392802D-01  0.296486D-02 -0.338618D-01  0.273462D-01 -0.102893D-01
      7   0.133948D-01  0.168568D-01  0.199607D-01  0.641992D-02 -0.733585D-01
      8   0.228300D+00 -0.711327D-01 -0.167625D-01  0.578973D-01 -0.277234D+00
      9   0.381437D+00 -0.896872D-02  0.194316D+00 -0.153140D+00  0.178348D+00
     10  -0.700037D-01  0.427295D-01  0.684534D-01  0.622579D-01 -0.318998D+00
     11  -0.211041D+00 -0.214409D+00 -0.426791D+00  0.579537D-01  0.111793D+00
     12  -0.675965D-01  0.182651D+00  0.182943D+00  0.283977D+00 -0.138405D-01
     13   0.272264D+00  0.381775D-01 -0.144278D+00  0.258148D+00  0.324141D-01
     14  -0.878732D-01  0.726634D-01 -0.727040D-01 -0.948287D-01 -0.331341D-01
     15  -0.155504D+00  0.726981D-01 -0.562879D-01 -0.741078D-01  0.125593D-01
     16   0.138310D+00 -0.156062D+00 -0.131958D+00  0.569509D-01 -0.341305D-01
                56            57            58            59            60 
      1  -0.192519D+04 -0.192518D+04 -0.192518D+04 -0.192518D+04 -0.192518D+04
      2  -0.385539D-01  0.178283D+00 -0.191839D-01  0.191824D-02 -0.778490D+00
      3  -0.645087D-01  0.161037D+00 -0.203531D+00 -0.352685D+00  0.487136D+00
      4   0.955813D-01 -0.556512D-01  0.676749D-01  0.653282D-02  0.255877D+00
      5   0.653497D-02 -0.292309D-01  0.265361D-02 -0.193818D-02  0.136631D+00
      6   0.115085D-01 -0.261892D-01  0.340957D-01  0.559612D-01 -0.862675D-01
      7  -0.157878D-01  0.956799D-02 -0.110486D-01  0.179694D-02 -0.449857D-01
      8   0.461187D-01  0.419340D+00 -0.385814D+00 -0.578786D-02 -0.713590D-01
      9   0.471932D-01  0.623592D+00 -0.512268D+00 -0.193283D+00  0.134304D+00
     10  -0.945722D-01 -0.129736D+00  0.115257D+00  0.149793D+00 -0.134812D-02
     11   0.329768D+00 -0.219700D+00 -0.686597D-01 -0.342338D-01  0.104004D+01
     12   0.379482D-02 -0.772297D-01  0.256377D+00 -0.252491D+00 -0.984404D+00
     13   0.274486D+00  0.169765D+00 -0.152004D+00 -0.101918D+00  0.393252D-01
     14  -0.855145D-01 -0.272026D+00  0.142952D+00  0.400862D-01  0.312570D+00
     15  -0.697591D-02 -0.292669D+00  0.254358D+00  0.356237D-01 -0.225161D+00
     16   0.111620D+00  0.280884D+00 -0.291513D+00  0.169211D+00 -0.787807D-01
 Unable to Open any file for archive entry.
 1\1\GINC-X1000C5S4B0N0\SP\RB3LYP TD-FC\Gen\C39H28N6Ru1(2+)\PNG4RJV\08-
 Jan-2024\0\\#p b3lyp chkbasis geom=allcheck Guess=Read int=ultrafine s
 crf=(SMD,solvent=n,n-DiMethylFormamide) td=(NStates=60) EmpiricalDispe
 rsion=GD3BJ\\Title\\2,1\C,0,-1.6705768297,-2.0465430788,0.2689123952\C
 ,0,-2.4223188815,-0.3111784241,-1.0765953898\C,0,-3.6458640947,-0.9719
 081263,-1.3493495256\C,0,-3.8483708068,-2.2202701418,-0.7569778214\C,0
 ,-2.8562160625,-2.7887740428,0.0654330386\C,0,-0.6267794672,-2.5550971
 199,1.1012700538\C,0,1.4734157372,-2.2101138855,2.0276320251\C,0,1.418
 0810626,-3.4547875998,2.6798186692\C,0,0.3015083338,-4.2614780459,2.53
 40029648\C,0,-0.7683051017,-3.816928255,1.7244758937\H,0,-2.2085416404
 ,0.6645966863,-1.5080625466\H,0,-4.7808349797,-2.7663574891,-0.9071215
 843\H,0,2.3411746751,-1.5573529457,2.1332796543\H,0,2.2627072919,-3.76
 56319233,3.2964226621\H,0,0.2364015036,-5.2301860273,3.0340358742\C,0,
 -0.6769422877,2.7060572569,-0.0722670206\C,0,0.3060895316,2.0908644489
 ,-2.0841729977\C,0,-0.046943568,3.3226514888,-2.6637412788\C,0,-0.7359
 664583,4.2634166217,-1.9172783678\C,0,-1.0702372655,3.9681442724,-0.57
 54633997\C,0,-0.9932631245,2.3363154741,1.2728211274\C,0,-0.8635323807
 ,0.7187546417,2.9331725981\C,0,-1.5458074043,1.5532528991,3.8366875824
 \C,0,-1.9618708749,2.8106187508,3.433736189\C,0,-1.6889600631,3.236540
 298,2.1133227785\H,0,0.8432540515,1.3333330147,-2.6566094177\H,0,0.229
 2626819,3.516310288,-3.7011844341\H,0,-1.0225935355,5.2254008022,-2.34
 75393239\H,0,-0.5275615923,-0.2757515938,3.2302280003\H,0,-1.738458505
 8,1.1911400845,4.8475883372\H,0,-2.4949334988,3.4745325092,4.117656161
 4\C,0,3.2257557322,0.1919435546,-0.2169890942\C,0,2.6698927922,1.42635
 18939,1.6688051282\C,0,4.0164189027,1.7800612145,1.8672743645\C,0,4.98
 59446886,1.3189311113,0.9933673568\C,0,4.6011243201,0.4971804947,-0.09
 08462921\C,0,2.7673574725,-0.6359055536,-1.2893971747\C,0,0.9593839594
 ,-1.6507976192,-2.3346903908\C,0,1.8030484166,-2.2070518485,-3.3127956
 605\C,0,3.1649052315,-1.9626596228,-3.2678679441\C,0,3.6860934484,-1.1
 537708166,-2.2318789842\H,0,1.8916176286,1.7756554673,2.3485821456\H,0
 ,6.0379869024,1.5790971688,1.1284319463\H,0,-0.1167649459,-1.829208952
 6,-2.3538107862\H,0,3.8390970147,-2.3833648192,-4.0170071322\N,0,2.281
 4997646,0.6511603456,0.6561173586\N,0,0.4775333215,-1.7672969186,1.259
 4749047\N,0,-0.5916361364,1.097667117,1.6843967732\N,0,-1.4688408355,-
 0.8285014509,-0.3058755077\N,0,-0.0033564168,1.785846376,-0.8235986817
 \N,0,1.4255569822,-0.8830976065,-1.349460612\Ru,0,0.3612114565,0.01336
 25265,0.1906764978\C,0,5.5175472131,-0.0403067467,-1.0592483447\C,0,5.
 0793503515,-0.8312806047,-2.0845955854\C,0,-1.9799275836,-4.561084208,
 1.5026455253\C,0,-2.9806156731,-4.0687964244,0.7122609211\C,0,-2.07501
 23968,4.5158959507,1.5830359395\C,0,-1.7805882952,4.8655417419,0.29453
 00867\H,0,5.7828724284,-1.2353469337,-2.8155863172\H,0,6.5778298573,0.
 1996644352,-0.9549916252\H,0,-3.8970896913,-4.6410542254,0.5535663013\
 H,0,-2.0824590686,-5.5344398532,1.9870962436\H,0,-2.0800682471,5.83845
 98636,-0.1007922199\H,0,-2.6130992843,5.2048157837,2.2376097574\H,0,4.
 2756821431,2.4161905656,2.7148100167\H,0,1.3654242679,-2.8266279487,-4
 .0968755829\C,0,-4.651200009,-0.3163405015,-2.2277549789\C,0,-5.659545
 2147,-1.0120901592,-2.7832631662\H,0,-5.7811528661,-2.0888294203,-2.64
 32746735\H,0,-6.3965268613,-0.5117231618,-3.4172786654\C,0,-4.48916769
 14,1.1603410469,-2.4886071013\H,0,-4.4066830984,1.7304401079,-1.548269
 4048\H,0,-3.5743547518,1.3701841248,-3.0682334404\H,0,-5.3433206739,1.
 5502496672,-3.0592377986\\Version=AS64L-G16RevC.02\State=1-A\HF=-1925.
 3514854\RMSD=8.454e-09\PG=C01 [X(C39H28N6Ru1)]\\@
 The archive entry for this job was punched.


 THE WORLD IS NOT A HAMBURGER - YOU CAN'T HAVE IT YOUR WAY.
 Job cpu time:       0 days 17 hours 47 minutes 34.4 seconds.
 Elapsed time:       0 days  1 hours 31 minutes 15.6 seconds.
 File lengths (MBytes):  RWF=  18005 Int=      0 D2E=      0 Chk=   1336 Scr=      1
 Normal termination of Gaussian 16 at Mon Jan  8 17:12:24 2024.
