
                                 *****************
                                 * O   R   C   A *
                                 *****************

                                            #,                                       
                                            ###                                      
                                            ####                                     
                                            #####                                    
                                            ######                                   
                                           ########,                                 
                                     ,,################,,,,,                         
                               ,,#################################,,                 
                          ,,##########################################,,             
                       ,#########################################, ''#####,          
                    ,#############################################,,   '####,        
                  ,##################################################,,,,####,       
                ,###########''''           ''''###############################       
              ,#####''   ,,,,##########,,,,          '''####'''          '####       
            ,##' ,,,,###########################,,,                        '##       
           ' ,,###''''                  '''############,,,                           
         ,,##''                                '''############,,,,        ,,,,,,###''
      ,#''                                            '''#######################'''  
     '                                                          ''''####''''         
             ,#######,   #######,   ,#######,      ##                                
            ,#'     '#,  ##    ##  ,#'     '#,    #''#        ######   ,####,        
            ##       ##  ##   ,#'  ##            #'  '#       #        #'  '#        
            ##       ##  #######   ##           ,######,      #####,   #    #        
            '#,     ,#'  ##    ##  '#,     ,#' ,#      #,         ##   #,  ,#        
             '#######'   ##     ##  '#######'  #'      '#     #####' # '####'        



                  #######################################################
                  #                        -***-                        #
                  #          Department of theory and spectroscopy      #
                  #    Directorship and core code : Frank Neese         #
                  #        Max Planck Institute fuer Kohlenforschung    #
                  #                Kaiser Wilhelm Platz 1               #
                  #                 D-45470 Muelheim/Ruhr               #
                  #                      Germany                        #
                  #                                                     #
                  #                  All rights reserved                #
                  #                        -***-                        #
                  #######################################################


                         Program Version 5.0.4 -  RELEASE  -


 With contributions from (in alphabetic order):
   Daniel Aravena         : Magnetic Suceptibility
   Michael Atanasov       : Ab Initio Ligand Field Theory (pilot matlab implementation)
   Alexander A. Auer      : GIAO ZORA, VPT2 properties, NMR spectrum
   Ute Becker             : Parallelization
   Giovanni Bistoni       : ED, misc. LED, open-shell LED, HFLD
   Martin Brehm           : Molecular dynamics
   Dmytro Bykov           : SCF Hessian
   Vijay G. Chilkuri      : MRCI spin determinant printing, contributions to CSF-ICE
   Dipayan Datta          : RHF DLPNO-CCSD density
   Achintya Kumar Dutta   : EOM-CC, STEOM-CC
   Dmitry Ganyushin       : Spin-Orbit,Spin-Spin,Magnetic field MRCI
   Miquel Garcia          : C-PCM and meta-GGA Hessian, CC/C-PCM, Gaussian charge scheme
   Yang Guo               : DLPNO-NEVPT2, F12-NEVPT2, CIM, IAO-localization
   Andreas Hansen         : Spin unrestricted coupled pair/coupled cluster methods
   Benjamin Helmich-Paris : MC-RPA, TRAH-SCF, COSX integrals
   Lee Huntington         : MR-EOM, pCC
   Robert Izsak           : Overlap fitted RIJCOSX, COSX-SCS-MP3, EOM
   Marcus Kettner         : VPT2
   Christian Kollmar      : KDIIS, OOCD, Brueckner-CCSD(T), CCSD density, CASPT2, CASPT2-K
   Simone Kossmann        : Meta GGA functionals, TD-DFT gradient, OOMP2, MP2 Hessian
   Martin Krupicka        : Initial AUTO-CI
   Lucas Lang             : DCDCAS
   Marvin Lechner         : AUTO-CI (C++ implementation), FIC-MRCC
   Dagmar Lenk            : GEPOL surface, SMD
   Dimitrios Liakos       : Extrapolation schemes; Compound Job, initial MDCI parallelization
   Dimitrios Manganas     : Further ROCIS development; embedding schemes
   Dimitrios Pantazis     : SARC Basis sets
   Anastasios Papadopoulos: AUTO-CI, single reference methods and gradients
   Taras Petrenko         : DFT Hessian,TD-DFT gradient, ASA, ECA, R-Raman, ABS, FL, XAS/XES, NRVS
   Peter Pinski           : DLPNO-MP2, DLPNO-MP2 Gradient
   Christoph Reimann      : Effective Core Potentials
   Marius Retegan         : Local ZFS, SOC
   Christoph Riplinger    : Optimizer, TS searches, QM/MM, DLPNO-CCSD(T), (RO)-DLPNO pert. Triples
   Tobias Risthaus        : Range-separated hybrids, TD-DFT gradient, RPA, STAB
   Michael Roemelt        : Original ROCIS implementation
   Masaaki Saitow         : Open-shell DLPNO-CCSD energy and density
   Barbara Sandhoefer     : DKH picture change effects
   Avijit Sen             : IP-ROCIS
   Kantharuban Sivalingam : CASSCF convergence, NEVPT2, FIC-MRCI
   Bernardo de Souza      : ESD, SOC TD-DFT
   Georgi Stoychev        : AutoAux, RI-MP2 NMR, DLPNO-MP2 response
   Willem Van den Heuvel  : Paramagnetic NMR
   Boris Wezisla          : Elementary symmetry handling
   Frank Wennmohs         : Technical directorship


 We gratefully acknowledge several colleagues who have allowed us to
 interface, adapt or use parts of their codes:
   Stefan Grimme, W. Hujo, H. Kruse, P. Pracht,  : VdW corrections, initial TS optimization,
                  C. Bannwarth, S. Ehlert          DFT functionals, gCP, sTDA/sTD-DF
   Ed Valeev, F. Pavosevic, A. Kumar             : LibInt (2-el integral package), F12 methods
   Garnet Chan, S. Sharma, J. Yang, R. Olivares  : DMRG
   Ulf Ekstrom                                   : XCFun DFT Library
   Mihaly Kallay                                 : mrcc  (arbitrary order and MRCC methods)
   Jiri Pittner, Ondrej Demel                    : Mk-CCSD
   Frank Weinhold                                : gennbo (NPA and NBO analysis)
   Christopher J. Cramer and Donald G. Truhlar   : smd solvation model
   Lars Goerigk                                  : TD-DFT with DH, B97 family of functionals
   V. Asgeirsson, H. Jonsson                     : NEB implementation
   FAccTs GmbH                                   : IRC, NEB, NEB-TS, DLPNO-Multilevel, CI-OPT
                                                   MM, QMMM, 2- and 3-layer-ONIOM, Crystal-QMMM,
                                                   LR-CPCM, SF, NACMEs, symmetry and pop. for TD-DFT,
                                                   nearIR, NL-DFT gradient (VV10), updates on ESD,
                                                   ML-optimized integration grids
   S Lehtola, MJT Oliveira, MAL Marques          : LibXC Library
   Liviu Ungur et al                             : ANISO software


 Your calculation uses the libint2 library for the computation of 2-el integrals
 For citations please refer to: http://libint.valeyev.net

 Your ORCA version has been built with support for libXC version: 5.1.0
 For citations please refer to: https://tddft.org/programs/libxc/

 This ORCA versions uses:
   CBLAS   interface :  Fast vector & matrix operations
   LAPACKE interface :  Fast linear algebra routines
   SCALAPACK package :  Parallel linear algebra routines
   Shared memory     :  Shared parallel matrices
   BLAS/LAPACK       :  OpenBLAS 0.3.15  USE64BITINT DYNAMIC_ARCH NO_AFFINITY Zen SINGLE_THREADED
        Core in use  :  Zen
   Copyright (c) 2011-2014, The OpenBLAS Project


Your calculation utilizes the SMD solvation module
Please cite in your paper:
A.V. Marenich, C.J. Cramer, D.G. Truhlar J. Phys. Chem. B, 113, (2009), 6378 

================================================================================

cite the ECPs for Ru [Def2-ECP] as follows:
Ce-Yb(ecp-28): M. Dolg, H. Stoll, H.Preuss, J. Chem. Phys., 1989, 90, 1730-1734.
Y-Cd(ecp-28), Hf-Hg(ecp-46): D. Andrae,U. Haeussermann, M. Dolg, H. Stoll, H. Preuss, Theor. Chim. Acta, 1990, 77, 123-141.
In-Sb(ecp-28), Tl-Bi(ecp-46): B. Metz, H. Stoll, M. Dolg, J. Chem. Phys., 2000, 113, 2563-2569.
Te-Xe(ecp-28), Po-Rn(ecp-46): K. A. Peterson, D. Figgen, E. Goll, H. Stoll, M. Dolg, J. Chem. Phys., 2003, 119, 11113-11123.
Rb(ecp-28), Cs(ecp-46): T. Leininger, A. Nicklass, W. Kuechle, H. Stoll, M. Dolg, A. Bergner, Chem. Phys. Lett., 1996, 255, 274-280.
Sr(ecp-28), Ba(ecp-46): M. Kaupp, P. V. Schleyer, H. Stoll and H. Preuss, J. Chem. Phys., 1991, 94, 1360-1366.
La(ecp-46): M. Dolg, H. Stoll, A. Savin, H. Preuss, Theor. Chim. Acta, 1989, 75, 173-194.
Lu(ecp-28): X. Cao, M. Dolg, J. Chem. Phys., 2001, 115, 7348-7355.

ECP parameters for Ru [Def2-ECP] have been obtained from:
TURBOMOLE (7.0.2)

----- Orbital basis set information -----
Your calculation utilizes the basis: def2-SVP
   F. Weigend and R. Ahlrichs, Phys. Chem. Chem. Phys. 7, 3297 (2005).

----- AuxJ basis set information -----
Your calculation utilizes the auxiliary basis: def2/J
   F. Weigend, Phys. Chem. Chem. Phys. 8, 1057 (2006).

----- AuxC basis set information -----
Your calculation utilizes the auxiliary basis: def2-SVP/C
  H-La, Hf-Rn : A. Hellweg, C. Hattig, S. Hofener and W. Klopper, Theor. Chem. Acc. 117, 587 (2007).
        Ce-Lu : J. Chmela and M. E. Harding, Mol. Phys. (2018).

================================================================================
                                        WARNINGS
                       Please study these warnings very carefully!
================================================================================

INFO   : Checking CIS options ...
  ===> : (D) CORRECTION FOUND - SETTING MODE=3
  ===> : JK MODE FOUND - ACTIVATING RI-MP2 CODE
  ===> : MP2 AND CIS FOUND - CHECKING
WARNING: CIS(D) and MP2 runs must have the same orbital window
  ===> : adjusting orbital windows

WARNING: No MP2 level density has been requested!
         To caclulate MP2 level properties use
         %mp2 Density relaxed end
         or
         %mp2 Density unrelaxed end
         Otherwise for double-hybrid DFT only the energy is correct!

WARNING: The frozen-core approximation is turned on by default for 
         the MP2 part of double-hybrid DFT.

WARNING: CIS/ROCIS methods need fully converged wavefunctions
  ===> : Setting SCFConvForced true
         You can overwrite this default with %scf ConvForced false 


INFO   : the flag for use of the SHARK integral package has been found!

================================================================================
                                       INPUT FILE
================================================================================
NAME = Ru-PRC_2_SCS-PBE-QIDH_def2SVP.inp
|  1> %maxcore 6000
|  2> %pal
|  3>  nprocs 8
|  4> end
|  5> ! RI-SCS-PBE-QIDH def2-SVP def2/J def2-SVP/C RIJCOSX CPCM TIGHTSCF
|  6> 
|  7> %TDDFT 
|  8>     DCORR      4
|  9>     NROOTS    40
| 10>     doscs true
| 11>     TDA       FALSE
| 12> END
| 13> 
| 14> %CPCM
| 15>     SMD		TRUE
| 16>     SMDsolvent	"DMF"
| 17> END
| 18> 
| 19> * xyz 2 1
| 20> C                  -1.67762600   -2.06917600    0.26663300
| 21> C                  -2.41976900   -0.35506600   -1.10525600
| 22> C                  -3.64054900   -1.01297700   -1.38146000
| 23> C                  -3.83977500   -2.26012400   -0.78603600
| 24> C                  -2.86017500   -2.81414300    0.05348900
| 25> C                  -0.64603500   -2.57041500    1.10931800
| 26> C                   1.44308500   -2.22864100    2.05449600
| 27> C                   1.37107100   -3.45610900    2.72594600
| 28> C                   0.25377000   -4.25800100    2.57879900
| 29> C                  -0.79899200   -3.82255400    1.74914100
| 30> H                  -2.20348800    0.61917600   -1.54629500
| 31> H                  -4.75670000   -2.82685600   -0.95693900
| 32> H                   2.31664400   -1.58092100    2.16092700
| 33> H                   2.20519900   -3.76067100    3.35881600
| 34> H                   0.17640700   -5.21804400    3.09326600
| 35> C                  -0.67339700    2.70837900   -0.05312000
| 36> C                   0.28364100    2.10199200   -2.07678600
| 37> C                  -0.06962300    3.33263900   -2.64593400
| 38> C                  -0.74150200    4.27374300   -1.88863600
| 39> C                  -1.06092100    3.97552600   -0.54795300
| 40> C                  -0.98229700    2.33684100    1.28747800
| 41> C                  -0.86513200    0.71554500    2.94084800
| 42> C                  -1.52816500    1.55169900    3.84900700
| 43> C                  -1.93001300    2.81414400    3.45518900
| 44> C                  -1.66090300    3.24064700    2.13824800
| 45> H                   0.81430900    1.34564600   -2.66004600
| 46> H                   0.19565500    3.52842800   -3.68531800
| 47> H                  -1.02608800    5.23987000   -2.31036100
| 48> H                  -0.54138600   -0.28590700    3.23440100
| 49> H                  -1.72009400    1.18704000    4.85864000
| 50> H                  -2.45085000    3.48178900    4.14451300
| 51> C                   3.23412000    0.19880600   -0.22862400
| 52> C                   2.68339500    1.39646100    1.67891500
| 53> C                   4.02351900    1.75439600    1.87621500
| 54> C                   4.99043500    1.31827600    0.98984900
| 55> C                   4.60716500    0.51520700   -0.10406100
| 56> C                   2.77992400   -0.61361700   -1.30748600
| 57> C                   0.98382300   -1.63523300   -2.36009000
| 58> C                   1.82485800   -2.15757100   -3.35148700
| 59> C                   3.18147600   -1.89533500   -3.31194000
| 60> C                   3.69765300   -1.10225100   -2.26646500
| 61> H                   1.90544100    1.73094300    2.36951600
| 62> H                   6.04067700    1.58549700    1.12343700
| 63> H                  -0.09133400   -1.82982300   -2.37615000
| 64> H                   3.85546200   -2.29168000   -4.07407900
| 65> N                   2.29071800    0.63576100    0.65528400
| 66> N                   0.46103900   -1.78766600    1.26545600
| 67> N                  -0.59313200    1.09239100    1.69009600
| 68> N                  -1.47103100   -0.85747600   -0.31699100
| 69> N                  -0.01102000    1.78870800   -0.81332900
| 70> N                   1.44226000   -0.87808700   -1.36144800
| 71> Ru                  0.36080900   -0.00017200    0.18929900
| 72> C                   5.51802000    0.00759000   -1.08472300
| 73> C                   5.08178500   -0.76686700   -2.12215900
| 74> C                  -2.00317200   -4.56431000    1.51982500
| 75> C                  -2.99008000   -4.08297000    0.70778800
| 76> C                  -2.03492300    4.52072000    1.61867400
| 77> C                  -1.75019700    4.87194600    0.32958100
| 78> H                   5.78528600   -1.14774300   -2.86536700
| 79> H                   6.57648500    0.25619200   -0.98346900
| 80> H                  -3.90321000   -4.65855900    0.54243700
| 81> H                  -2.11475400   -5.53118100    2.01503300
| 82> H                  -2.04404200    5.84954600   -0.05820200
| 83> H                  -2.55962000    5.21304700    2.28029100
| 84> H                   4.28251500    2.37741300    2.73292400
| 85> H                   1.39050900   -2.76799900   -4.14390000
| 86> C                  -4.63221300   -0.36219000   -2.26657700
| 87> C                  -5.80902100   -0.94423200   -2.56200300
| 88> H                  -6.10834500   -1.92100400   -2.17663300
| 89> H                  -6.52586300   -0.44316400   -3.21675100
| 90> C                  -4.28434800    0.98137800   -2.82737800
| 91> H                  -4.09873700    1.72172300   -2.03314000
| 92> H                  -3.36834600    0.94781100   -3.43802900
| 93> H                  -5.09264700    1.36665600   -3.45976600
| 94> *
| 95> 
| 96>                          ****END OF INPUT****
================================================================================

                       ****************************
                       * Single Point Calculation *
                       ****************************

---------------------------------
CARTESIAN COORDINATES (ANGSTROEM)
---------------------------------
  C     -1.677626   -2.069176    0.266633
  C     -2.419769   -0.355066   -1.105256
  C     -3.640549   -1.012977   -1.381460
  C     -3.839775   -2.260124   -0.786036
  C     -2.860175   -2.814143    0.053489
  C     -0.646035   -2.570415    1.109318
  C      1.443085   -2.228641    2.054496
  C      1.371071   -3.456109    2.725946
  C      0.253770   -4.258001    2.578799
  C     -0.798992   -3.822554    1.749141
  H     -2.203488    0.619176   -1.546295
  H     -4.756700   -2.826856   -0.956939
  H      2.316644   -1.580921    2.160927
  H      2.205199   -3.760671    3.358816
  H      0.176407   -5.218044    3.093266
  C     -0.673397    2.708379   -0.053120
  C      0.283641    2.101992   -2.076786
  C     -0.069623    3.332639   -2.645934
  C     -0.741502    4.273743   -1.888636
  C     -1.060921    3.975526   -0.547953
  C     -0.982297    2.336841    1.287478
  C     -0.865132    0.715545    2.940848
  C     -1.528165    1.551699    3.849007
  C     -1.930013    2.814144    3.455189
  C     -1.660903    3.240647    2.138248
  H      0.814309    1.345646   -2.660046
  H      0.195655    3.528428   -3.685318
  H     -1.026088    5.239870   -2.310361
  H     -0.541386   -0.285907    3.234401
  H     -1.720094    1.187040    4.858640
  H     -2.450850    3.481789    4.144513
  C      3.234120    0.198806   -0.228624
  C      2.683395    1.396461    1.678915
  C      4.023519    1.754396    1.876215
  C      4.990435    1.318276    0.989849
  C      4.607165    0.515207   -0.104061
  C      2.779924   -0.613617   -1.307486
  C      0.983823   -1.635233   -2.360090
  C      1.824858   -2.157571   -3.351487
  C      3.181476   -1.895335   -3.311940
  C      3.697653   -1.102251   -2.266465
  H      1.905441    1.730943    2.369516
  H      6.040677    1.585497    1.123437
  H     -0.091334   -1.829823   -2.376150
  H      3.855462   -2.291680   -4.074079
  N      2.290718    0.635761    0.655284
  N      0.461039   -1.787666    1.265456
  N     -0.593132    1.092391    1.690096
  N     -1.471031   -0.857476   -0.316991
  N     -0.011020    1.788708   -0.813329
  N      1.442260   -0.878087   -1.361448
  Ru     0.360809   -0.000172    0.189299
  C      5.518020    0.007590   -1.084723
  C      5.081785   -0.766867   -2.122159
  C     -2.003172   -4.564310    1.519825
  C     -2.990080   -4.082970    0.707788
  C     -2.034923    4.520720    1.618674
  C     -1.750197    4.871946    0.329581
  H      5.785286   -1.147743   -2.865367
  H      6.576485    0.256192   -0.983469
  H     -3.903210   -4.658559    0.542437
  H     -2.114754   -5.531181    2.015033
  H     -2.044042    5.849546   -0.058202
  H     -2.559620    5.213047    2.280291
  H      4.282515    2.377413    2.732924
  H      1.390509   -2.767999   -4.143900
  C     -4.632213   -0.362190   -2.266577
  C     -5.809021   -0.944232   -2.562003
  H     -6.108345   -1.921004   -2.176633
  H     -6.525863   -0.443164   -3.216751
  C     -4.284348    0.981378   -2.827378
  H     -4.098737    1.721723   -2.033140
  H     -3.368346    0.947811   -3.438029
  H     -5.092647    1.366656   -3.459766

----------------------------
CARTESIAN COORDINATES (A.U.)
----------------------------
  NO LB      ZA    FRAG     MASS         X           Y           Z
   0 C     6.0000    0    12.011   -3.170254   -3.910176    0.503863
   1 C     6.0000    0    12.011   -4.572701   -0.670977   -2.088631
   2 C     6.0000    0    12.011   -6.879641   -1.914249   -2.610581
   3 C     6.0000    0    12.011   -7.256123   -4.271015   -1.485393
   4 C     6.0000    0    12.011   -5.404947   -5.317960    0.101080
   5 C     6.0000    0    12.011   -1.220829   -4.857380    2.096307
   6 C     6.0000    0    12.011    2.727035   -4.211521    3.882435
   7 C     6.0000    0    12.011    2.590949   -6.531099    5.151291
   8 C     6.0000    0    12.011    0.479556   -8.046456    4.873224
   9 C     6.0000    0    12.011   -1.509876   -7.223580    3.305397
  10 H     1.0000    0     1.008   -4.163989    1.170073   -2.922074
  11 H     1.0000    0     1.008   -8.988860   -5.341984   -1.808353
  12 H     1.0000    0     1.008    4.377823   -2.987508    4.083560
  13 H     1.0000    0     1.008    4.167222   -7.106638    6.347242
  14 H     1.0000    0     1.008    0.333361   -9.860674    5.845426
  15 C     6.0000    0    12.011   -1.272536    5.118095   -0.100382
  16 C     6.0000    0    12.011    0.536004    3.972189   -3.924557
  17 C     6.0000    0    12.011   -0.131568    6.297775   -5.000091
  18 C     6.0000    0    12.011   -1.401236    8.076204   -3.569005
  19 C     6.0000    0    12.011   -2.004850    7.512655   -1.035481
  20 C     6.0000    0    12.011   -1.856272    4.415990    2.432981
  21 C     6.0000    0    12.011   -1.634863    1.352184    5.557397
  22 C     6.0000    0    12.011   -2.887813    2.932286    7.273569
  23 C     6.0000    0    12.011   -3.647196    5.317961    6.529361
  24 C     6.0000    0    12.011   -3.138652    6.123935    4.040703
  25 H     1.0000    0     1.008    1.538821    2.542902   -5.026758
  26 H     1.0000    0     1.008    0.369734    6.667763   -6.964242
  27 H     1.0000    0     1.008   -1.939025    9.901919   -4.365950
  28 H     1.0000    0     1.008   -1.023071   -0.540286    6.112132
  29 H     1.0000    0     1.008   -3.250507    2.243181    9.181499
  30 H     1.0000    0     1.008   -4.631435    6.579628    7.831995
  31 C     6.0000    0    12.011    6.111601    0.375689   -0.432037
  32 C     6.0000    0    12.011    5.070882    2.638929    3.172690
  33 C     6.0000    0    12.011    7.603349    3.315328    3.545533
  34 C     6.0000    0    12.011    9.430555    2.491181    1.870544
  35 C     6.0000    0    12.011    8.706280    0.973600   -0.196647
  36 C     6.0000    0    12.011    5.253295   -1.159568   -2.470790
  37 C     6.0000    0    12.011    1.859156   -3.090143   -4.459924
  38 C     6.0000    0    12.011    3.448482   -4.077218   -6.333393
  39 C     6.0000    0    12.011    6.012118   -3.581664   -6.258660
  40 C     6.0000    0    12.011    6.987552   -2.082953   -4.282998
  41 H     1.0000    0     1.008    3.600762    3.271008    4.477736
  42 H     1.0000    0     1.008   11.415225    2.996155    2.122988
  43 H     1.0000    0     1.008   -0.172596   -3.457864   -4.490273
  44 H     1.0000    0     1.008    7.285767   -4.330648   -7.698894
  45 N     7.0000    0    14.007    4.328830    1.201414    1.238307
  46 N     7.0000    0    14.007    0.871237   -3.378199    2.391365
  47 N     7.0000    0    14.007   -1.120857    2.064320    3.193819
  48 N     7.0000    0    14.007   -2.779846   -1.620395   -0.599026
  49 N     7.0000    0    14.007   -0.020825    3.380168   -1.536969
  50 N     7.0000    0    14.007    2.725476   -1.659344   -2.572764
  51 Ru   16.0000*   0   101.070    0.681830   -0.000325    0.357723
  52 C     6.0000    0    12.011   10.427547    0.014343   -2.049829
  53 C     6.0000    0    12.011    9.603182   -1.449169   -4.010299
  54 C     6.0000    0    12.011   -3.785446   -8.625296    2.872053
  55 C     6.0000    0    12.011   -5.650432   -7.715695    1.337525
  56 C     6.0000    0    12.011   -3.845447    8.542923    3.058851
  57 C     6.0000    0    12.011   -3.307393    9.206644    0.622818
  58 H     1.0000    0     1.008   10.932606   -2.168920   -5.414759
  59 H     1.0000    0     1.008   12.427756    0.484133   -1.858487
  60 H     1.0000    0     1.008   -7.375998   -8.803401    1.025057
  61 H     1.0000    0     1.008   -3.996306  -10.452417    3.807861
  62 H     1.0000    0     1.008   -3.862680   11.054040   -0.109986
  63 H     1.0000    0     1.008   -4.836981    9.851231    4.309125
  64 H     1.0000    0     1.008    8.092781    4.492659    5.164478
  65 H     1.0000    0     1.008    2.627681   -5.230760   -7.830836
  66 C     6.0000    0    12.011   -8.753614   -0.684440   -4.283210
  67 C     6.0000    0    12.011  -10.977459   -1.784340   -4.841484
  68 H     1.0000    0     1.008  -11.543099   -3.630171   -4.113240
  69 H     1.0000    0     1.008  -12.332094   -0.837459   -6.078778
  70 C     6.0000    0    12.011   -8.096244    1.854536   -5.342970
  71 H     1.0000    0     1.008   -7.745490    3.253585   -3.842078
  72 H     1.0000    0     1.008   -6.365251    1.791103   -6.496933
  73 H     1.0000    0     1.008   -9.623708    2.582606   -6.538010
* core charge reduced due to ECP

--------------------------------
INTERNAL COORDINATES (ANGSTROEM)
--------------------------------
 C      0   0   0     0.000000000000     0.00000000     0.00000000
 C      1   0   0     2.317548004437     0.00000000     0.00000000
 C      2   1   0     1.414015325920    92.74923135     0.00000000
 C      3   2   1     1.396279477204   117.09525529   359.68700230
 C      4   3   2     1.404049656524   120.52216088     0.37070214
 C      1   2   3     1.423214156628   147.46841042   180.42545254
 C      6   1   2     2.318316909562   147.42111914     0.22254936
 C      7   6   1     1.400967098015    91.14104304   179.29531090
 C      8   7   6     1.383128534835   119.90094751     0.00000000
 C      9   8   7     1.409345349947   119.13821751     0.04560973
 H      2   1   3     1.091073024617   146.74413636   180.11454438
 H      4   3   2     1.091395643595   121.12511811   180.20541753
 H      7   6   1     1.092691211021   147.94286947   359.56987729
 H      8   7   6     1.090436595648   118.91790085   180.00377034
 H      9   8   7     1.091945003060   121.12064140   180.03926934
 C     11   2   1     2.989233885817   121.57535374   324.54139976
 C     16  11   2     2.319235004645    65.96018789   122.17786492
 C     17  16  11     1.401148435466    91.18899035   108.54203246
 C     18  17  16     1.382243969153   119.86817180     0.14656506
 C     19  18  17     1.410103819986   119.14489980     0.00000000
 C     16  11   2     1.425013225570   100.18027309   333.22062438
 C     21  16  11     2.318611807470   147.37356457    61.21816906
 C     22  21  16     1.401256236413    91.20254301   179.56550587
 C     23  22  21     1.382151153186   119.86391739     0.20180824
 C     24  23  22     1.410198070694   119.13400795   359.88005914
 H     17  16  11     1.092639018862   147.90642084   288.84450987
 H     18  17  16     1.090424160252   118.91782950   180.04970834
 H     19  18  17     1.091898597467   121.16534808   179.93582890
 H     22  21  16     1.092653167583   147.93415818   359.76816512
 H     23  22  21     1.090491504786   118.93289632   179.99870390
 H     24  23  22     1.091873895452   121.15214790   179.80693376
 C     13   7   6     3.117554231558   119.93495636   327.07108084
 C     32  13   7     2.318702344237    66.07138084   120.23191323
 C     33  32  13     1.401062842845    91.18175524   111.01793635
 C     34  33  32     1.382306728412   119.87898734     0.04977530
 C     35  34  33     1.410125809905   119.14278032     0.00000000
 C     32  13   7     1.424874854992    99.26767106   330.84687821
 C     37  32  13     2.318976764539   147.32624103    59.91574273
 C     38  37  32     1.401087031229    91.17441985   179.62327924
 C     39  38  37     1.382296669615   119.87783635     0.00000000
 C     40  39  38     1.410120172897   119.15412597     0.05306379
 H     33  32  13     1.092712393835   147.90211257   291.19476451
 H     35  34  33     1.091907081738   121.14069137   179.95426840
 H     38  37  32     1.092742314706   147.90627168   359.86371029
 H     40  39  38     1.091880186899   121.12927986   180.02209112
 N     33  32  13     1.334421275494    31.17101195   291.20247980
 N      7   6   1     1.334712485272    31.20216978   359.53419286
 N     22  21  16     1.334307862984    31.17176112   359.76329543
 N      2   1   3     1.331871356764    30.96755589   180.24414953
 N     17  16  11     1.334651849894    31.15797407   288.86671057
 N     38  37  32     1.334436357587    31.15928528   359.91162590
 Ru    50  17  16     2.084133240948   128.13401245   177.90444282
 C     36  35  34     1.431443260475   124.08785856   179.93670254
 C     53  36  35     1.366147164170   121.20413643   179.97850746
 C     10   9   8     1.432772579230   124.19912520   180.01282239
 C     55  10   9     1.365679202973   121.33578621   179.68625935
 C     25  24  23     1.431235475806   124.03142118   179.67403996
 C     57  25  24     1.366085414899   121.20136101   180.31379213
 H     54  53  36     1.091942450700   120.58868667   179.92047068
 H     53  36  35     1.091972290466   118.19896844   359.94482096
 H     56  55  10     1.091993611255   120.56663442   180.04901736
 H     55  10   9     1.092026115360   118.14281070   359.77331374
 H     58  57  25     1.091980906021   120.61002049   179.72411827
 H     57  25  24     1.091952687357   118.20812751     0.10755995
 H     34  33  32     1.090495034829   118.93131910   179.98518643
 H     39  38  37     1.090504360172   118.93169566   179.96350910
 C      3   2   1     1.479984226927   119.38718594   179.50112316
 C     67   3   2     1.345706684276   121.80680993   179.99659367
 H     68  67   3     1.091873817737   123.31020211   359.92803829
 H     68  67   3     1.092532167532   120.46270813   179.89613270
 C     67   3   2     1.496891041609   117.58282303   359.82843386
 H     71  67   3     1.101533550551   111.85699268   300.77911853
 H     71  67   3     1.101399587477   111.93983888    59.91883403
 H     71  67   3     1.096221233707   111.11440123   180.38224488

---------------------------
INTERNAL COORDINATES (A.U.)
---------------------------
 C      0   0   0     0.000000000000     0.00000000     0.00000000
 C      1   0   0     4.379531030602     0.00000000     0.00000000
 C      2   1   0     2.672101715156    92.74923135     0.00000000
 C      3   2   1     2.638585818330   117.09525529   359.68700230
 C      4   3   2     2.653269329257   120.52216088     0.37070214
 C      1   2   3     2.689484985947   147.46841042   180.42545254
 C      6   1   2     4.380984050710   147.42111914     0.22254936
 C      7   6   1     2.647444137882    91.14104304   179.29531090
 C      8   7   6     2.613734138849   119.90094751     0.00000000
 C      9   8   7     2.663276739515   119.13821751     0.04560973
 H      2   1   3     2.061829208634   146.74413636   180.11454438
 H      4   3   2     2.062438870149   121.12511811   180.20541753
 H      7   6   1     2.064887137772   147.94286947   359.56987729
 H      8   7   6     2.060626532180   118.91790085   180.00377034
 H      9   8   7     2.063477009087   121.12064140   180.03926934
 C     11   2   1     5.648833394431   121.57535374   324.54139976
 C     16  11   2     4.382718998982    65.96018789   122.17786492
 C     17  16  11     2.647786816003    91.18899035   108.54203246
 C     18  17  16     2.612062551964   119.86817180     0.14656506
 C     19  18  17     2.664710040170   119.14489980     0.00000000
 C     16  11   2     2.692884733542   100.18027309   333.22062438
 C     21  16  11     4.381541326995   147.37356457    61.21816906
 C     22  21  16     2.647990530270    91.20254301   179.56550587
 C     23  22  21     2.611887155205   119.86391739     0.20180824
 C     24  23  22     2.664888148196   119.13400795   359.88005914
 H     17  16  11     2.064788508886   147.90642084   288.84450987
 H     18  17  16     2.060603032687   118.91782950   180.04970834
 H     19  18  17     2.063389315225   121.16534808   179.93582890
 H     22  21  16     2.064815246093   147.93415818   359.76816512
 H     23  22  21     2.060730295414   118.93289632   179.99870390
 H     24  23  22     2.063342635182   121.15214790   179.80693376
 C     13   7   6     5.891323705292   119.93495636   327.07108084
 C     32  13   7     4.381712416689    66.07138084   120.23191323
 C     33  32  13     2.647625069390    91.18175524   111.01793635
 C     34  33  32     2.612181149775   119.87898734     0.04977530
 C     35  34  33     2.664751595095   119.14278032     0.00000000
 C     32  13   7     2.692623251046    99.26767106   330.84687821
 C     37  32  13     4.382230995906   147.32624103    59.91574273
 C     38  37  32     2.647670778812    91.17441985   179.62327924
 C     39  38  37     2.612162141404   119.87783635     0.00000000
 C     40  39  38     2.664740942692   119.15412597     0.05306379
 H     33  32  13     2.064927167490   147.90211257   291.19476451
 H     35  34  33     2.063405348173   121.14069137   179.95426840
 H     38  37  32     2.064983709742   147.90627168   359.86371029
 H     40  39  38     2.063354524293   121.12927986   180.02209112
 N     33  32  13     2.521690757961    31.17101195   291.20247980
 N      7   6   1     2.522241064690    31.20216978   359.53419286
 N     22  21  16     2.521476439377    31.17176112   359.76329543
 N      2   1   3     2.516872109899    30.96755589   180.24414953
 N     17  16  11     2.522126480431    31.15797407   288.86671057
 N     38  37  32     2.521719258986    31.15928528   359.91162590
 Ru    50  17  16     3.938441051994   128.13401245   177.90444282
 C     36  35  34     2.705035738544   124.08785856   179.93670254
 C     53  36  35     2.581643998915   121.20413643   179.97850746
 C     10   9   8     2.707547786936   124.19912520   180.01282239
 C     55  10   9     2.580759680411   121.33578621   179.68625935
 C     25  24  23     2.704643082425   124.03142118   179.67403996
 C     57  25  24     2.581527309704   121.20136101   180.31379213
 H     54  53  36     2.063472185826   120.58868667   179.92047068
 H     53  36  35     2.063528574811   118.19896844   359.94482096
 H     56  55  10     2.063568865264   120.56663442   180.04901736
 H     55  10   9     2.063630289121   118.14281070   359.77331374
 H     58  57  25     2.063544855851   120.61002049   179.72411827
 H     57  25  24     2.063491530305   118.20812751     0.10755995
 H     34  33  32     2.060736966227   118.93131910   179.98518643
 H     39  38  37     2.060754588572   118.93169566   179.96350910
 C      3   2   1     2.796764871416   119.38718594   179.50112316
 C     67   3   2     2.543017089868   121.80680993   179.99659367
 H     68  67   3     2.063342488322   123.31020211   359.92803829
 H     68  67   3     2.064586589135   120.46270813   179.89613270
 C     67   3   2     2.828714120962   117.58282303   359.82843386
 H     71  67   3     2.081596737868   111.85699268   300.77911853
 H     71  67   3     2.081343584345   111.93983888    59.91883403
 H     71  67   3     2.071557913895   111.11440123   180.38224488

---------------------
BASIS SET INFORMATION
---------------------
There are 4 groups of distinct atoms

 Group   1 Type C   : 7s4p1d contracted to 3s2p1d pattern {511/31/1}
 Group   2 Type H   : 4s1p contracted to 2s1p pattern {31/1}
 Group   3 Type N   : 7s4p1d contracted to 3s2p1d pattern {511/31/1}
 Group   4 Type Ru  : 7s6p5d1f contracted to 5s3p2d1f pattern {31111/411/41/1}

Atom   0C    basis set group =>   1
Atom   1C    basis set group =>   1
Atom   2C    basis set group =>   1
Atom   3C    basis set group =>   1
Atom   4C    basis set group =>   1
Atom   5C    basis set group =>   1
Atom   6C    basis set group =>   1
Atom   7C    basis set group =>   1
Atom   8C    basis set group =>   1
Atom   9C    basis set group =>   1
Atom  10H    basis set group =>   2
Atom  11H    basis set group =>   2
Atom  12H    basis set group =>   2
Atom  13H    basis set group =>   2
Atom  14H    basis set group =>   2
Atom  15C    basis set group =>   1
Atom  16C    basis set group =>   1
Atom  17C    basis set group =>   1
Atom  18C    basis set group =>   1
Atom  19C    basis set group =>   1
Atom  20C    basis set group =>   1
Atom  21C    basis set group =>   1
Atom  22C    basis set group =>   1
Atom  23C    basis set group =>   1
Atom  24C    basis set group =>   1
Atom  25H    basis set group =>   2
Atom  26H    basis set group =>   2
Atom  27H    basis set group =>   2
Atom  28H    basis set group =>   2
Atom  29H    basis set group =>   2
Atom  30H    basis set group =>   2
Atom  31C    basis set group =>   1
Atom  32C    basis set group =>   1
Atom  33C    basis set group =>   1
Atom  34C    basis set group =>   1
Atom  35C    basis set group =>   1
Atom  36C    basis set group =>   1
Atom  37C    basis set group =>   1
Atom  38C    basis set group =>   1
Atom  39C    basis set group =>   1
Atom  40C    basis set group =>   1
Atom  41H    basis set group =>   2
Atom  42H    basis set group =>   2
Atom  43H    basis set group =>   2
Atom  44H    basis set group =>   2
Atom  45N    basis set group =>   3
Atom  46N    basis set group =>   3
Atom  47N    basis set group =>   3
Atom  48N    basis set group =>   3
Atom  49N    basis set group =>   3
Atom  50N    basis set group =>   3
Atom  51Ru   basis set group =>   4
Atom  52C    basis set group =>   1
Atom  53C    basis set group =>   1
Atom  54C    basis set group =>   1
Atom  55C    basis set group =>   1
Atom  56C    basis set group =>   1
Atom  57C    basis set group =>   1
Atom  58H    basis set group =>   2
Atom  59H    basis set group =>   2
Atom  60H    basis set group =>   2
Atom  61H    basis set group =>   2
Atom  62H    basis set group =>   2
Atom  63H    basis set group =>   2
Atom  64H    basis set group =>   2
Atom  65H    basis set group =>   2
Atom  66C    basis set group =>   1
Atom  67C    basis set group =>   1
Atom  68H    basis set group =>   2
Atom  69H    basis set group =>   2
Atom  70C    basis set group =>   1
Atom  71H    basis set group =>   2
Atom  72H    basis set group =>   2
Atom  73H    basis set group =>   2
---------------------------------
AUXILIARY/J BASIS SET INFORMATION
---------------------------------
There are 4 groups of distinct atoms

 Group   1 Type C   : 12s5p4d2f1g contracted to 6s4p3d1f1g pattern {711111/2111/211/2/1}
 Group   2 Type H   : 5s2p1d contracted to 3s1p1d pattern {311/2/1}
 Group   3 Type N   : 12s5p4d2f1g contracted to 6s4p3d1f1g pattern {711111/2111/211/2/1}
 Group   4 Type Ru  : 11s5p5d3f3g contracted to 8s5p5d2f3g pattern {41111111/11111/11111/21/111}

Atom   0C    basis set group =>   1
Atom   1C    basis set group =>   1
Atom   2C    basis set group =>   1
Atom   3C    basis set group =>   1
Atom   4C    basis set group =>   1
Atom   5C    basis set group =>   1
Atom   6C    basis set group =>   1
Atom   7C    basis set group =>   1
Atom   8C    basis set group =>   1
Atom   9C    basis set group =>   1
Atom  10H    basis set group =>   2
Atom  11H    basis set group =>   2
Atom  12H    basis set group =>   2
Atom  13H    basis set group =>   2
Atom  14H    basis set group =>   2
Atom  15C    basis set group =>   1
Atom  16C    basis set group =>   1
Atom  17C    basis set group =>   1
Atom  18C    basis set group =>   1
Atom  19C    basis set group =>   1
Atom  20C    basis set group =>   1
Atom  21C    basis set group =>   1
Atom  22C    basis set group =>   1
Atom  23C    basis set group =>   1
Atom  24C    basis set group =>   1
Atom  25H    basis set group =>   2
Atom  26H    basis set group =>   2
Atom  27H    basis set group =>   2
Atom  28H    basis set group =>   2
Atom  29H    basis set group =>   2
Atom  30H    basis set group =>   2
Atom  31C    basis set group =>   1
Atom  32C    basis set group =>   1
Atom  33C    basis set group =>   1
Atom  34C    basis set group =>   1
Atom  35C    basis set group =>   1
Atom  36C    basis set group =>   1
Atom  37C    basis set group =>   1
Atom  38C    basis set group =>   1
Atom  39C    basis set group =>   1
Atom  40C    basis set group =>   1
Atom  41H    basis set group =>   2
Atom  42H    basis set group =>   2
Atom  43H    basis set group =>   2
Atom  44H    basis set group =>   2
Atom  45N    basis set group =>   3
Atom  46N    basis set group =>   3
Atom  47N    basis set group =>   3
Atom  48N    basis set group =>   3
Atom  49N    basis set group =>   3
Atom  50N    basis set group =>   3
Atom  51Ru   basis set group =>   4
Atom  52C    basis set group =>   1
Atom  53C    basis set group =>   1
Atom  54C    basis set group =>   1
Atom  55C    basis set group =>   1
Atom  56C    basis set group =>   1
Atom  57C    basis set group =>   1
Atom  58H    basis set group =>   2
Atom  59H    basis set group =>   2
Atom  60H    basis set group =>   2
Atom  61H    basis set group =>   2
Atom  62H    basis set group =>   2
Atom  63H    basis set group =>   2
Atom  64H    basis set group =>   2
Atom  65H    basis set group =>   2
Atom  66C    basis set group =>   1
Atom  67C    basis set group =>   1
Atom  68H    basis set group =>   2
Atom  69H    basis set group =>   2
Atom  70C    basis set group =>   1
Atom  71H    basis set group =>   2
Atom  72H    basis set group =>   2
Atom  73H    basis set group =>   2
---------------------------------
AUXILIARY/C BASIS SET INFORMATION
---------------------------------
There are 4 groups of distinct atoms

 Group   1 Type C   : 8s6p5d3f contracted to 6s5p4d1f pattern {311111/21111/2111/3}
 Group   2 Type H   : 4s3p2d contracted to 3s2p1d pattern {211/21/2}
 Group   3 Type N   : 8s6p5d3f contracted to 6s5p4d1f pattern {311111/21111/2111/3}
 Group   4 Type Ru  : 8s7p6d5f3g1h contracted to 8s7p6d5f3g1h pattern {11111111/1111111/111111/11111/111/1}

Atom   0C    basis set group =>   1
Atom   1C    basis set group =>   1
Atom   2C    basis set group =>   1
Atom   3C    basis set group =>   1
Atom   4C    basis set group =>   1
Atom   5C    basis set group =>   1
Atom   6C    basis set group =>   1
Atom   7C    basis set group =>   1
Atom   8C    basis set group =>   1
Atom   9C    basis set group =>   1
Atom  10H    basis set group =>   2
Atom  11H    basis set group =>   2
Atom  12H    basis set group =>   2
Atom  13H    basis set group =>   2
Atom  14H    basis set group =>   2
Atom  15C    basis set group =>   1
Atom  16C    basis set group =>   1
Atom  17C    basis set group =>   1
Atom  18C    basis set group =>   1
Atom  19C    basis set group =>   1
Atom  20C    basis set group =>   1
Atom  21C    basis set group =>   1
Atom  22C    basis set group =>   1
Atom  23C    basis set group =>   1
Atom  24C    basis set group =>   1
Atom  25H    basis set group =>   2
Atom  26H    basis set group =>   2
Atom  27H    basis set group =>   2
Atom  28H    basis set group =>   2
Atom  29H    basis set group =>   2
Atom  30H    basis set group =>   2
Atom  31C    basis set group =>   1
Atom  32C    basis set group =>   1
Atom  33C    basis set group =>   1
Atom  34C    basis set group =>   1
Atom  35C    basis set group =>   1
Atom  36C    basis set group =>   1
Atom  37C    basis set group =>   1
Atom  38C    basis set group =>   1
Atom  39C    basis set group =>   1
Atom  40C    basis set group =>   1
Atom  41H    basis set group =>   2
Atom  42H    basis set group =>   2
Atom  43H    basis set group =>   2
Atom  44H    basis set group =>   2
Atom  45N    basis set group =>   3
Atom  46N    basis set group =>   3
Atom  47N    basis set group =>   3
Atom  48N    basis set group =>   3
Atom  49N    basis set group =>   3
Atom  50N    basis set group =>   3
Atom  51Ru   basis set group =>   4
Atom  52C    basis set group =>   1
Atom  53C    basis set group =>   1
Atom  54C    basis set group =>   1
Atom  55C    basis set group =>   1
Atom  56C    basis set group =>   1
Atom  57C    basis set group =>   1
Atom  58H    basis set group =>   2
Atom  59H    basis set group =>   2
Atom  60H    basis set group =>   2
Atom  61H    basis set group =>   2
Atom  62H    basis set group =>   2
Atom  63H    basis set group =>   2
Atom  64H    basis set group =>   2
Atom  65H    basis set group =>   2
Atom  66C    basis set group =>   1
Atom  67C    basis set group =>   1
Atom  68H    basis set group =>   2
Atom  69H    basis set group =>   2
Atom  70C    basis set group =>   1
Atom  71H    basis set group =>   2
Atom  72H    basis set group =>   2
Atom  73H    basis set group =>   2
-------------------------
ECP PARAMETER INFORMATION
-------------------------

 Group 1, Type Ru ECP Def2-ECP (replacing 28 core electrons, lmax=3)

Atom  51Ru   ECP group =>   1



           ************************************************************
           *        Program running with 8 parallel MPI-processes     *
           *              working on a common directory               *
           ************************************************************
------------------------------------------------------------------------------
                           ORCA GTO INTEGRAL CALCULATION
                           -- RI-GTO INTEGRALS CHOSEN --
------------------------------------------------------------------------------
------------------------------------------------------------------------------
                   ___                                                        
                  /   \      - P O W E R E D   B Y -                         
                 /     \                                                     
                 |  |  |   _    _      __       _____    __    __             
                 |  |  |  | |  | |    /  \     |  _  \  |  |  /  |          
                  \  \/   | |  | |   /    \    | | | |  |  | /  /          
                 / \  \   | |__| |  /  /\  \   | |_| |  |  |/  /          
                |  |  |   |  __  | /  /__\  \  |    /   |      \           
                |  |  |   | |  | | |   __   |  |    \   |  |\   \          
                \     /   | |  | | |  |  |  |  | |\  \  |  | \   \       
                 \___/    |_|  |_| |__|  |__|  |_| \__\ |__|  \__/        
                                                                              
                      - O R C A' S   B I G   F R I E N D -                    
                                      &                                       
                       - I N T E G R A L  F E E D E R -                       
                                                                              
 v1 FN, 2020, v2 2021                                                         
------------------------------------------------------------------------------


Reading SHARK input file Ru-PRC_2_SCS-PBE-QIDH_def2SVP.SHARKINP.tmp ... ok
----------------------
SHARK INTEGRAL PACKAGE
----------------------

Number of atoms                             ...     74
Number of basis functions                   ...    801
Number of shells                            ...    365
Maximum angular momentum                    ...      3
Integral batch strategy                     ... SHARK/LIBINT Hybrid
RI-J (if used) integral strategy            ... SPLIT-RIJ (Revised 2003 algorithm where possible)
Printlevel                                  ...      1
Contraction scheme used                     ... SEGMENTED contraction
Coulomb Range Separation                    ... NOT USED
Exchange Range Separation                   ... NOT USED
Finite Nucleus Model                        ... NOT USED
Auxiliary Coulomb fitting basis             ... AVAILABLE
   # of basis functions in Aux-J            ...   2602
   # of shells in Aux-J                     ...    838
   Maximum angular momentum in Aux-J        ...      4
Auxiliary J/K fitting basis                 ... NOT available
Auxiliary Correlation fitting basis         ... AVAILABLE
   # of basis functions in Aux-C            ...   2684
   # of shells in Aux-C                     ...    918
   Maximum angular momentum in Aux-C        ...      5
Auxiliary 'external' fitting basis          ... NOT available
Integral threshold                          ...     2.500000e-11
Primitive cut-off                           ...     2.500000e-12
Primitive pair pre-selection threshold      ...     2.500000e-12

Calculating pre-screening integrals         ... done (  0.1 sec) Dimension = 365
Organizing shell pair data                  ... done (  0.2 sec)
Shell pair information
Total number of shell pairs                 ...     66795
Shell pairs after pre-screening             ...     42372
Total number of primitive shell pairs       ...    245334
Primitive shell pairs kept                  ...     91097
          la=0 lb=0:  12482 shell pairs
          la=1 lb=0:  15707 shell pairs
          la=1 lb=1:   5016 shell pairs
          la=2 lb=0:   5104 shell pairs
          la=2 lb=1:   3334 shell pairs
          la=2 lb=2:    457 shell pairs
          la=3 lb=0:    149 shell pairs
          la=3 lb=1:     90 shell pairs
          la=3 lb=2:     32 shell pairs
          la=3 lb=3:      1 shell pairs

Calculating one electron integrals          ... done (  0.1 sec)
Calculating ECP integrals                   ... done (  1.0 sec)
Calculating RI/J V-Matrix + Cholesky decomp.... done (  0.3 sec)
Calculating RI/C V-Matrix + Cholesky decomp.... done (  0.3 sec)
Calculating Nuclear repulsion               ... done (  0.0 sec) ENN=   6024.905487618291 Eh

SHARK setup successfully completed in   2.3 seconds

Maximum memory used throughout the entire GTOINT-calculation: 75.1 MB


           ************************************************************
           *        Program running with 8 parallel MPI-processes     *
           *              working on a common directory               *
           ************************************************************
-------------------------------------------------------------------------------
                                 ORCA SCF
-------------------------------------------------------------------------------

------------
SCF SETTINGS
------------
Hamiltonian:
 Density Functional     Method          .... DFT(GTOs)
 Exchange Functional    Exchange        .... PBE
   PBE kappa parameter   XKappa         ....  0.804000
   PBE mue parameter    XMuePBE         ....  0.219520
 Correlation Functional Correlation     .... PBE
   PBE beta parameter  CBetaPBE         ....  0.066725
 LDA part of GGA corr.  LDAOpt          .... PW91-LDA
 Gradients option       PostSCFGGA      .... off
 Hybrid DFT is turned on
   Fraction HF Exchange ScalHFX         ....  0.690000
   Scaling of DF-GGA-X  ScalDFX         ....  0.310000
   Scaling of DF-GGA-C  ScalDFC         ....  0.670000
   Scaling of DF-LDA-C  ScalLDAC        ....  0.670000
   Perturbative correction              ....  0.330000
   Density functional embedding theory  .... OFF
 RI-approximation to the Coulomb term is turned on
   Number of AuxJ basis functions       .... 2602
   RIJ-COSX (HFX calculated with COS-X)).... on


General Settings:
 Integral files         IntName         .... Ru-PRC_2_SCS-PBE-QIDH_def2SVP
 Hartree-Fock type      HFTyp           .... RHF
 Total Charge           Charge          ....    2
 Multiplicity           Mult            ....    1
 Number of Electrons    NEL             ....  318
 Basis Dimension        Dim             ....  801
 Nuclear Repulsion      ENuc            ....   6024.9054876183 Eh

Convergence Acceleration:
 DIIS                   CNVDIIS         .... on
   Start iteration      DIISMaxIt       ....    12
   Startup error        DIISStart       ....  0.200000
   # of expansion vecs  DIISMaxEq       ....     5
   Bias factor          DIISBfac        ....   1.050
   Max. coefficient     DIISMaxC        ....  10.000
 Trust-Rad. Augm. Hess. CNVTRAH         .... auto
   Auto Start mean grad. ratio tolernc. ....  1.125000
   Auto Start start iteration           ....    20
   Auto Start num. interpolation iter.  ....    10
   Max. Number of Micro iterations      ....    16
   Max. Number of Macro iterations      .... Maxiter - #DIIS iter
   Number of Davidson start vectors     ....     2
   Converg. threshold I  (grad. norm)   ....   1.000e-05
   Converg. threshold II (energy diff.) ....   1.000e-08
   Grad. Scal. Fac. for Micro threshold ....   0.100
   Minimum threshold for Micro iter.    ....   0.010
   NR start threshold (gradient norm)   ....   0.001
   Initial trust radius                 ....   0.400
   Minimum AH scaling param. (alpha)    ....   1.000
   Maximum AH scaling param. (alpha)    .... 1000.000
   Orbital update algorithm             .... Taylor
   White noise on init. David. guess    .... on
   Maximum white noise                  ....   0.010
   Quad. conv. algorithm                .... NR
 SOSCF                  CNVSOSCF        .... off
 Level Shifting         CNVShift        .... on
   Level shift para.    LevelShift      ....    0.2500
   Turn off err/grad.   ShiftErr        ....    0.0010
 Zerner damping         CNVZerner       .... off
 Static damping         CNVDamp         .... on
   Fraction old density DampFac         ....    0.7000
   Max. Damping (<1)    DampMax         ....    0.9800
   Min. Damping (>=0)   DampMin         ....    0.0000
   Turn off err/grad.   DampErr         ....    0.1000
 Fernandez-Rico         CNVRico         .... off

SCF Procedure:
 Maximum # iterations   MaxIter         ....   125
 SCF integral mode      SCFMode         .... Direct
   Integral package                     .... SHARK and LIBINT hybrid scheme
 Reset frequency        DirectResetFreq ....    20
 Integral Threshold     Thresh          ....  2.500e-11 Eh
 Primitive CutOff       TCut            ....  2.500e-12 Eh

Convergence Tolerance:
 Convergence Check Mode ConvCheckMode   .... Total+1el-Energy
 Convergence forced     ConvForced      .... 1
 Energy Change          TolE            ....  1.000e-08 Eh
 1-El. energy change                    ....  1.000e-05 Eh
 DIIS Error             TolErr          ....  5.000e-07


Diagonalization of the overlap matrix:
Smallest eigenvalue                        ... 1.491e-04
Time for diagonalization                   ...    0.102 sec
Threshold for overlap eigenvalues          ... 1.000e-08
Number of eigenvalues below threshold      ... 0
Time for construction of square roots      ...    0.059 sec
Total time needed                          ...    0.164 sec

Time for model grid setup =    0.776 sec

------------------------------
INITIAL GUESS: MODEL POTENTIAL
------------------------------
Loading Hartree-Fock densities                     ... done
  calling /project/ligandum/orca_504_openmpi411/orca Ru-PRC_2_SCS-PBE-QIDH_def2SVP_atom44.inp > Ru-PRC_2_SCS-PBE-QIDH_def2SVP_atom44.out in order to generate an atomic fitting density for atom 51 (Ru with ECP) on-the-fly... 
    atom 51 (Ru), assumed electronic state with S=5: 1s2 2s2 2p6 3s2 3p6 4s2 3d10 4p6 5s2 4d6           ... done
Calculating cut-offs                               ... done
Initializing the effective Hamiltonian             ... done
Setting up the integral package (SHARK)            ... done
Starting the Coulomb interaction                   ... done (   0.7 sec)
Reading the grid                                   ... done
Mapping shells                                     ... done
Starting the XC term evaluation                    ... done (   0.3 sec)
  promolecular density results
     # of electrons  =    348.008916634
     EX              =   -375.881756113
     EC              =     -4.806782278
     EX+EC           =   -380.688538391
Transforming the Hamiltonian                       ... done (   0.1 sec)
Diagonalizing the Hamiltonian                      ... done (   0.1 sec)
Back transforming the eigenvectors                 ... done (   0.0 sec)
Now organizing SCF variables                       ... done
                      ------------------
                      INITIAL GUESS DONE (   2.5 sec)
                      ------------------
-------------------
DFT GRID GENERATION
-------------------

General Integration Accuracy     IntAcc      ... 4.388
Radial Grid Type                 RadialGrid  ... OptM3 with GC (2021)
Angular Grid (max. ang.)         AngularGrid ... 4 (Lebedev-302)
Angular grid pruning method      GridPruning ... 4 (adaptive)
Weight generation scheme         WeightScheme... Becke
Basis function cutoff            BFCut       ... 1.0000e-11
Integration weight cutoff        WCut        ... 1.0000e-14
Angular grids for H and He will be reduced by one unit
Partially contracted basis set               ... off
Rotationally invariant grid construction     ... off

Total number of grid points                  ...   362865
Total number of batches                      ...     5709
Average number of points per batch           ...       63
Average number of grid points per atom       ...     4904
Time for grid setup =    2.777 sec

--------------------
COSX GRID GENERATION
--------------------

GRIDX 1
-------
General Integration Accuracy     IntAcc      ... 3.816
Radial Grid Type                 RadialGrid  ... OptM3 with GC (2021)
Angular Grid (max. ang.)         AngularGrid ... 1 (Lebedev-50)
Angular grid pruning method      GridPruning ... 4 (adaptive)
Weight generation scheme         WeightScheme... Becke
Basis function cutoff            BFCut       ... 1.0000e-11
Integration weight cutoff        WCut        ... 1.0000e-14
Angular grids for H and He will be reduced by one unit
Partially contracted basis set               ... on
Rotationally invariant grid construction     ... off

Total number of grid points                  ...    45788
Total number of batches                      ...      744
Average number of points per batch           ...       61
Average number of grid points per atom       ...      619
UseSFitting                                  ... on

GRIDX 2
-------
General Integration Accuracy     IntAcc      ... 4.020
Radial Grid Type                 RadialGrid  ... OptM3 with GC (2021)
Angular Grid (max. ang.)         AngularGrid ... 2 (Lebedev-110)
Angular grid pruning method      GridPruning ... 4 (adaptive)
Weight generation scheme         WeightScheme... Becke
Basis function cutoff            BFCut       ... 1.0000e-11
Integration weight cutoff        WCut        ... 1.0000e-14
Angular grids for H and He will be reduced by one unit
Partially contracted basis set               ... on
Rotationally invariant grid construction     ... off

Total number of grid points                  ...    99493
Total number of batches                      ...     1592
Average number of points per batch           ...       62
Average number of grid points per atom       ...     1344
UseSFitting                                  ... on

GRIDX 3
-------
General Integration Accuracy     IntAcc      ... 4.338
Radial Grid Type                 RadialGrid  ... OptM3 with GC (2021)
Angular Grid (max. ang.)         AngularGrid ... 3 (Lebedev-194)
Angular grid pruning method      GridPruning ... 4 (adaptive)
Weight generation scheme         WeightScheme... Becke
Basis function cutoff            BFCut       ... 1.0000e-11
Integration weight cutoff        WCut        ... 1.0000e-14
Angular grids for H and He will be reduced by one unit
Partially contracted basis set               ... on
Rotationally invariant grid construction     ... off

Total number of grid points                  ...   215791
Total number of batches                      ...     3408
Average number of points per batch           ...       63
Average number of grid points per atom       ...     2916
UseSFitting                                  ... on

Time for X-Grid setup             =    2.954 sec


--------------------
CPCM SOLVATION MODEL
--------------------
CPCM parameters:
  Epsilon                                         ...      37.2190
  Refrac                                          ...       1.4305
  Rsolv                                           ...       1.3000
  Surface type                                    ... GAUSSIAN VDW
  Epsilon function type                           ...         CPCM
Solvent:                                     ... DMF
SMD-CDS solvent descriptors:
  Soln                                       ...    1.4305
  Soln25                                     ...    1.4280
  Sola                                       ...    0.0000
  Solb                                       ...    0.7400
  Solg                                       ...   49.5600
  Solc                                       ...    0.0000
  Solh                                       ...    0.0000
Radii:
 Radius for C  used is    3.4960 Bohr (=   1.8500 Ang.)
 Radius for H  used is    2.2677 Bohr (=   1.2000 Ang.)
 Radius for N  used is    3.5716 Bohr (=   1.8900 Ang.)
 Radius for Ru used is    3.9117 Bohr (=   2.0700 Ang.)
Calculating surface                               ...        done! (  0.0s)
GEPOL surface points                              ...         4064
GEPOL Volume                                      ...    3996.9030
GEPOL Surface-area                                ...    2020.7397
Calculating surface distance matrix               ...        done! (  0.1s)
Performing Cholesky decomposition & store         ...        done! (  0.5s)
Overall time for CPCM initialization              ...                 0.6s
--------------
SCF ITERATIONS
--------------
ITER       Energy         Delta-E        Max-DP      RMS-DP      [F,P]     Damp
               ***  Starting incremental Fock matrix formation  ***
  0  -1918.5879172346   0.000000000000 0.16972087  0.00147776  0.3600597 0.7000
  1  -1919.0068902197  -0.418972985167 0.08924993  0.00104179  0.2946286 0.7000
  2  -1919.1947232609  -0.187833041213 0.06681361  0.00072244  0.2276573 0.7000
                               ***Turning on DIIS***
  3  -1919.3197594649  -0.125036203979 0.05639373  0.00052271  0.1637118 0.7000
  4  -1919.4113647284  -0.091605263487 0.03601123  0.00037502  0.1129211 0.7000
  5  -1919.4773234423  -0.065958713923 0.07830221  0.00092215  0.0785435 0.0000
  6  -1919.6426303171  -0.165306874766 0.01300406  0.00011027  0.0068196 0.0000
  7  -1919.6452341449  -0.002603827791 0.00952307  0.00006726  0.0032164 0.0000
  8  -1919.6461800475  -0.000945902622 0.00583051  0.00005143  0.0030611 0.0000
  9  -1919.6465672145  -0.000387166962 0.00488637  0.00004216  0.0009749 0.0000
               *** Restarting incremental Fock matrix formation ***
                                   *** Resetting DIIS ***
 10  -1919.6459988789   0.000568335588 0.00227094  0.00002841  0.0014526 0.0000
 11  -1919.6460094354  -0.000010556510 0.00118342  0.00001024  0.0007764 0.0000
 12  -1919.6460157479  -0.000006312507 0.00042379  0.00000389  0.0003845 0.0000
 13  -1919.6460169737  -0.000001225832 0.00017495  0.00000166  0.0000575 0.0000
 14  -1919.6460171413  -0.000000167565 0.00009491  0.00000074  0.0000419 0.0000
 15  -1919.6460171249   0.000000016346 0.00003523  0.00000023  0.0000183 0.0000
 16  -1919.6460171748  -0.000000049888 0.00004071  0.00000018  0.0000111 0.0000
 17  -1919.6460171653   0.000000009558 0.00001368  0.00000008  0.0000064 0.0000
 18  -1919.6460171443   0.000000021023 0.00001667  0.00000006  0.0000042 0.0000
 19  -1919.6460171982  -0.000000053938 0.00000378  0.00000003  0.0000017 0.0000
                            ***DIIS convergence achieved***

               *****************************************************
               *                     SUCCESS                       *
               *           SCF CONVERGED AFTER  20 CYCLES          *
               *****************************************************

Old exchange energy                            =   -179.695676387 Eh
New exchange energy                            =   -179.695869561 Eh
Exchange energy change after final integration =     -0.000193174 Eh
Total energy after final integration           =  -1919.646210314 Eh
Final COS-X integration done in                =    34.787 sec

SMD CDS free energy correction energy :                -6.37806     Kcal/mol
Total Energy after SMD CDS correction =             -1919.656374396 Eh

----------------
TOTAL SCF ENERGY
----------------

Total Energy       :        -1919.65637440 Eh          -52236.50560 eV

Components:
Nuclear Repulsion  :         6024.90548762 Eh          163946.01317 eV
Electronic Energy  :        -7944.56186201 Eh         -216182.51877 eV
One Electron Energy:       -14572.51395882 Eh         -396538.26444 eV
Two Electron Energy:         6627.95209681 Eh          180355.74566 eV
Max COSX asymmetry :            0.00009278 Eh               0.00252 eV
CPCM Dielectric    :           -0.21405613 Eh              -5.82476 eV
SMD CDS (Gcds)     :           -0.01016408 Eh              -0.27658 eV

Virial components:
Potential Energy   :        -3762.43075212 Eh         -102380.94571 eV
Kinetic Energy     :         1842.77437773 Eh           50144.44011 eV
Virial Ratio       :            2.04172079


DFT components:
N(Alpha)           :      159.000012549585 electrons
N(Beta)            :      159.000012549585 electrons
N(Total)           :      318.000025099169 electrons
E(X)               :      -80.487276113205 Eh       
E(C)               :       -7.313275609523 Eh       
E(XC)              :      -87.800551722728 Eh       
DFET-embed. en.    :        0.000000000000 Eh       
CPCM Solvation Model Properties:
Surface-charge          :           -2.06109130
Charge-correction       :            0.01084126 Eh               0.29501 eV
Free-energy (cav+disp)  :           -0.01016408 Eh              -0.27658 eV

---------------
SCF CONVERGENCE
---------------

  Last Energy change         ...    5.8017e-08  Tolerance :   1.0000e-08
  Last MAX-Density change    ...    0.0000e+00  Tolerance :   1.0000e-07
  Last RMS-Density change    ...    0.0000e+00  Tolerance :   5.0000e-09
  Last DIIS Error            ...    5.6524e-07  Tolerance :   5.0000e-07

             **** THE GBW FILE WAS UPDATED (Ru-PRC_2_SCS-PBE-QIDH_def2SVP.gbw) ****
             **** DENSITY Ru-PRC_2_SCS-PBE-QIDH_def2SVP.scfp WAS UPDATED ****
             **** ENERGY FILE WAS UPDATED (Ru-PRC_2_SCS-PBE-QIDH_def2SVP.en.tmp) ****
             **** THE GBW FILE WAS UPDATED (Ru-PRC_2_SCS-PBE-QIDH_def2SVP.gbw) ****
             **** DENSITY Ru-PRC_2_SCS-PBE-QIDH_def2SVP.scfp WAS UPDATED ****
----------------
ORBITAL ENERGIES
----------------

  NO   OCC          E(Eh)            E(eV) 
   0   2.0000     -15.150971      -412.2789 
   1   2.0000     -15.150900      -412.2769 
   2   2.0000     -15.150698      -412.2715 
   3   2.0000     -15.150682      -412.2710 
   4   2.0000     -15.150611      -412.2691 
   5   2.0000     -15.150496      -412.2660 
   6   2.0000     -10.900854      -296.6273 
   7   2.0000     -10.900568      -296.6195 
   8   2.0000     -10.900269      -296.6114 
   9   2.0000     -10.900100      -296.6068 
  10   2.0000     -10.899825      -296.5993 
  11   2.0000     -10.898891      -296.5739 
  12   2.0000     -10.898560      -296.5649 
  13   2.0000     -10.898248      -296.5564 
  14   2.0000     -10.898194      -296.5549 
  15   2.0000     -10.897969      -296.5488 
  16   2.0000     -10.897920      -296.5475 
  17   2.0000     -10.897387      -296.5330 
  18   2.0000     -10.871193      -295.8202 
  19   2.0000     -10.870972      -295.8142 
  20   2.0000     -10.870907      -295.8124 
  21   2.0000     -10.870836      -295.8105 
  22   2.0000     -10.870820      -295.8101 
  23   2.0000     -10.870741      -295.8079 
  24   2.0000     -10.870382      -295.7981 
  25   2.0000     -10.870182      -295.7927 
  26   2.0000     -10.870100      -295.7905 
  27   2.0000     -10.870055      -295.7892 
  28   2.0000     -10.870010      -295.7880 
  29   2.0000     -10.869913      -295.7854 
  30   2.0000     -10.867373      -295.7163 
  31   2.0000     -10.855427      -295.3912 
  32   2.0000     -10.855347      -295.3890 
  33   2.0000     -10.855290      -295.3874 
  34   2.0000     -10.855262      -295.3867 
  35   2.0000     -10.855155      -295.3838 
  36   2.0000     -10.855112      -295.3826 
  37   2.0000     -10.855009      -295.3798 
  38   2.0000     -10.854991      -295.3793 
  39   2.0000     -10.854291      -295.3603 
  40   2.0000     -10.854211      -295.3581 
  41   2.0000     -10.854209      -295.3580 
  42   2.0000     -10.851991      -295.2977 
  43   2.0000     -10.828979      -294.6715 
  44   2.0000     -10.820510      -294.4410 
  45   2.0000      -3.335904       -90.7746 
  46   2.0000      -2.085228       -56.7419 
  47   2.0000      -2.084912       -56.7333 
  48   2.0000      -2.078292       -56.5532 
  49   2.0000      -1.206760       -32.8376 
  50   2.0000      -1.199473       -32.6393 
  51   2.0000      -1.199218       -32.6324 
  52   2.0000      -1.170166       -31.8418 
  53   2.0000      -1.169607       -31.8266 
  54   2.0000      -1.169362       -31.8200 
  55   2.0000      -1.062391       -28.9091 
  56   2.0000      -1.060087       -28.8464 
  57   2.0000      -1.059956       -28.8429 
  58   2.0000      -1.035201       -28.1692 
  59   2.0000      -1.012702       -27.5570 
  60   2.0000      -1.012446       -27.5500 
  61   2.0000      -1.010979       -27.5101 
  62   2.0000      -1.007808       -27.4239 
  63   2.0000      -1.007555       -27.4170 
  64   2.0000      -0.977505       -26.5993 
  65   2.0000      -0.942246       -25.6398 
  66   2.0000      -0.941949       -25.6317 
  67   2.0000      -0.938959       -25.5504 
  68   2.0000      -0.938056       -25.5258 
  69   2.0000      -0.937644       -25.5146 
  70   2.0000      -0.927441       -25.2370 
  71   2.0000      -0.855483       -23.2789 
  72   2.0000      -0.836455       -22.7611 
  73   2.0000      -0.835166       -22.7260 
  74   2.0000      -0.834795       -22.7159 
  75   2.0000      -0.820058       -22.3149 
  76   2.0000      -0.819517       -22.3002 
  77   2.0000      -0.816897       -22.2289 
  78   2.0000      -0.810772       -22.0622 
  79   2.0000      -0.810515       -22.0552 
  80   2.0000      -0.808995       -22.0139 
  81   2.0000      -0.774247       -21.0683 
  82   2.0000      -0.772453       -21.0195 
  83   2.0000      -0.771999       -21.0072 
  84   2.0000      -0.724844       -19.7240 
  85   2.0000      -0.711061       -19.3490 
  86   2.0000      -0.709524       -19.3071 
  87   2.0000      -0.705710       -19.2034 
  88   2.0000      -0.693701       -18.8766 
  89   2.0000      -0.692557       -18.8454 
  90   2.0000      -0.673186       -18.3183 
  91   2.0000      -0.672289       -18.2939 
  92   2.0000      -0.670192       -18.2369 
  93   2.0000      -0.669939       -18.2300 
  94   2.0000      -0.631715       -17.1899 
  95   2.0000      -0.629613       -17.1327 
  96   2.0000      -0.628852       -17.1119 
  97   2.0000      -0.628469       -17.1015 
  98   2.0000      -0.627510       -17.0754 
  99   2.0000      -0.622209       -16.9312 
 100   2.0000      -0.616244       -16.7689 
 101   2.0000      -0.615865       -16.7585 
 102   2.0000      -0.614131       -16.7113 
 103   2.0000      -0.585285       -15.9264 
 104   2.0000      -0.584562       -15.9067 
 105   2.0000      -0.581914       -15.8347 
 106   2.0000      -0.579546       -15.7702 
 107   2.0000      -0.569005       -15.4834 
 108   2.0000      -0.568515       -15.4701 
 109   2.0000      -0.568113       -15.4591 
 110   2.0000      -0.563610       -15.3366 
 111   2.0000      -0.563392       -15.3307 
 112   2.0000      -0.558847       -15.2070 
 113   2.0000      -0.558133       -15.1876 
 114   2.0000      -0.557411       -15.1679 
 115   2.0000      -0.546028       -14.8582 
 116   2.0000      -0.544504       -14.8167 
 117   2.0000      -0.542310       -14.7570 
 118   2.0000      -0.540667       -14.7123 
 119   2.0000      -0.537927       -14.6377 
 120   2.0000      -0.534902       -14.5554 
 121   2.0000      -0.534367       -14.5409 
 122   2.0000      -0.531390       -14.4599 
 123   2.0000      -0.526188       -14.3183 
 124   2.0000      -0.519473       -14.1356 
 125   2.0000      -0.513027       -13.9602 
 126   2.0000      -0.510491       -13.8912 
 127   2.0000      -0.499234       -13.5849 
 128   2.0000      -0.495596       -13.4858 
 129   2.0000      -0.489632       -13.3236 
 130   2.0000      -0.486687       -13.2434 
 131   2.0000      -0.485015       -13.1979 
 132   2.0000      -0.478909       -13.0318 
 133   2.0000      -0.462692       -12.5905 
 134   2.0000      -0.461613       -12.5611 
 135   2.0000      -0.461074       -12.5465 
 136   2.0000      -0.459729       -12.5099 
 137   2.0000      -0.455457       -12.3936 
 138   2.0000      -0.452341       -12.3088 
 139   2.0000      -0.450231       -12.2514 
 140   2.0000      -0.430924       -11.7260 
 141   2.0000      -0.429709       -11.6930 
 142   2.0000      -0.421967       -11.4823 
 143   2.0000      -0.419467       -11.4143 
 144   2.0000      -0.412608       -11.2276 
 145   2.0000      -0.405698       -11.0396 
 146   2.0000      -0.402624       -10.9560 
 147   2.0000      -0.398053       -10.8316 
 148   2.0000      -0.396230       -10.7820 
 149   2.0000      -0.355515        -9.6741 
 150   2.0000      -0.332555        -9.0493 
 151   2.0000      -0.332142        -9.0381 
 152   2.0000      -0.327498        -8.9117 
 153   2.0000      -0.322677        -8.7805 
 154   2.0000      -0.315620        -8.5885 
 155   2.0000      -0.308137        -8.3848 
 156   2.0000      -0.298136        -8.1127 
 157   2.0000      -0.294057        -8.0017 
 158   2.0000      -0.292245        -7.9524 
 159   0.0000      -0.030040        -0.8174 
 160   0.0000      -0.022795        -0.6203 
 161   0.0000      -0.021217        -0.5773 
 162   0.0000      -0.016136        -0.4391 
 163   0.0000      -0.011805        -0.3212 
 164   0.0000      -0.011363        -0.3092 
 165   0.0000       0.028985         0.7887 
 166   0.0000       0.041412         1.1269 
 167   0.0000       0.044633         1.2145 
 168   0.0000       0.059728         1.6253 
 169   0.0000       0.073945         2.0122 
 170   0.0000       0.075255         2.0478 
 171   0.0000       0.099563         2.7092 
 172   0.0000       0.116927         3.1817 
 173   0.0000       0.124023         3.3748 
 174   0.0000       0.125146         3.4054 
 175   0.0000       0.130555         3.5526 
 176   0.0000       0.134108         3.6493 
 177   0.0000       0.136195         3.7061 
 178   0.0000       0.142368         3.8740 
 179   0.0000       0.143336         3.9004 
 180   0.0000       0.145860         3.9690 
 181   0.0000       0.147736         4.0201 
 182   0.0000       0.149134         4.0582 
 183   0.0000       0.154392         4.2012 
 184   0.0000       0.160915         4.3787 
 185   0.0000       0.162030         4.4091 
 186   0.0000       0.167966         4.5706 
 187   0.0000       0.171604         4.6696 
 188   0.0000       0.174033         4.7357 
 189   0.0000       0.177955         4.8424 
 190   0.0000       0.183448         4.9919 
 191   0.0000       0.189262         5.1501 
 192   0.0000       0.195365         5.3162 
 193   0.0000       0.198545         5.4027 
 194   0.0000       0.201811         5.4916 
 195   0.0000       0.202909         5.5214 
 196   0.0000       0.206619         5.6224 
 197   0.0000       0.213167         5.8006 
 198   0.0000       0.214439         5.8352 
 199   0.0000       0.215331         5.8595 
 200   0.0000       0.218999         5.9593 
 201   0.0000       0.220857         6.0098 
 202   0.0000       0.228868         6.2278 
 203   0.0000       0.233623         6.3572 
 204   0.0000       0.240921         6.5558 
 205   0.0000       0.241656         6.5758 
 206   0.0000       0.244949         6.6654 
 207   0.0000       0.248661         6.7664 
 208   0.0000       0.251985         6.8568 
 209   0.0000       0.252230         6.8635 
 210   0.0000       0.277093         7.5401 
 211   0.0000       0.292536         7.9603 
 212   0.0000       0.302660         8.2358 
 213   0.0000       0.305324         8.3083 
 214   0.0000       0.306246         8.3334 
 215   0.0000       0.309136         8.4120 
 216   0.0000       0.311408         8.4738 
 217   0.0000       0.312555         8.5050 
 218   0.0000       0.313584         8.5331 
 219   0.0000       0.320024         8.7083 
 220   0.0000       0.321044         8.7361 
 221   0.0000       0.325000         8.8437 
 222   0.0000       0.325816         8.8659 
 223   0.0000       0.335421         9.1273 
 224   0.0000       0.338764         9.2182 
 225   0.0000       0.341717         9.2986 
 226   0.0000       0.344256         9.3677 
 227   0.0000       0.347106         9.4452 
 228   0.0000       0.348811         9.4916 
 229   0.0000       0.357944         9.7401 
 230   0.0000       0.360265         9.8033 
 231   0.0000       0.365848         9.9552 
 232   0.0000       0.369967        10.0673 
 233   0.0000       0.372683        10.1412 
 234   0.0000       0.373333        10.1589 
 235   0.0000       0.376278        10.2390 
 236   0.0000       0.378480        10.2990 
 237   0.0000       0.381672        10.3858 
 238   0.0000       0.384048        10.4505 
 239   0.0000       0.385868        10.5000 
 240   0.0000       0.388974        10.5845 
 241   0.0000       0.392285        10.6746 
 242   0.0000       0.395167        10.7530 
 243   0.0000       0.399170        10.8620 
 244   0.0000       0.402896        10.9633 
 245   0.0000       0.404234        10.9998 
 246   0.0000       0.411676        11.2023 
 247   0.0000       0.417795        11.3688 
 248   0.0000       0.419581        11.4174 
 249   0.0000       0.423316        11.5190 
 250   0.0000       0.424911        11.5624 
 251   0.0000       0.431051        11.7295 
 252   0.0000       0.436871        11.8879 
 253   0.0000       0.443484        12.0678 
 254   0.0000       0.447769        12.1844 
 255   0.0000       0.452959        12.3256 
 256   0.0000       0.453659        12.3447 
 257   0.0000       0.459011        12.4903 
 258   0.0000       0.462355        12.5813 
 259   0.0000       0.470217        12.7953 
 260   0.0000       0.471247        12.8233 
 261   0.0000       0.476152        12.9568 
 262   0.0000       0.484172        13.1750 
 263   0.0000       0.492503        13.4017 
 264   0.0000       0.500731        13.6256 
 265   0.0000       0.503454        13.6997 
 266   0.0000       0.508229        13.8296 
 267   0.0000       0.510455        13.8902 
 268   0.0000       0.513911        13.9842 
 269   0.0000       0.517217        14.0742 
 270   0.0000       0.522727        14.2241 
 271   0.0000       0.528778        14.3888 
 272   0.0000       0.532607        14.4930 
 273   0.0000       0.537819        14.6348 
 274   0.0000       0.539886        14.6910 
 275   0.0000       0.546078        14.8595 
 276   0.0000       0.547899        14.9091 
 277   0.0000       0.550461        14.9788 
 278   0.0000       0.551075        14.9955 
 279   0.0000       0.554042        15.0763 
 280   0.0000       0.556488        15.1428 
 281   0.0000       0.562998        15.3199 
 282   0.0000       0.565167        15.3790 
 283   0.0000       0.567383        15.4393 
 284   0.0000       0.568053        15.4575 
 285   0.0000       0.569517        15.4973 
 286   0.0000       0.572990        15.5918 
 287   0.0000       0.573717        15.6116 
 288   0.0000       0.574643        15.6368 
[...]
   153a -> 164a  :     0.026268 
   154a -> 164a  :     0.010772 
   155a -> 166a  :     0.014706 
   156a -> 162a  :     0.026380 
   156a -> 164a  :     0.021462 
   156a -> 165a  :     0.063466 
   156a -> 166a  :     0.049389 
   157a -> 164a  :     0.056363 
   158a -> 164a  :     0.040452 
   158a -> 165a  :     0.039919 
   158a -> 166a  :     0.036371 
   158a -> 168a  :     0.028523 

STATE 36:  E=   0.168611 au      4.588 eV    37005.8 cm**-1 <S**2> =   0.000000
   150a -> 162a  :     0.018995 
   150a -> 163a  :     0.253336 
   151a -> 162a  :     0.105988 
   151a -> 164a  :     0.038116 
   152a -> 160a  :     0.049890 
   152a -> 163a  :     0.039654 
   153a -> 161a  :     0.022603 
   153a -> 162a  :     0.138679 
   153a -> 164a  :     0.030174 
   154a -> 161a  :     0.055318 
   155a -> 160a  :     0.022193 
   156a -> 160a  :     0.016228 
   156a -> 163a  :     0.072826 
   157a -> 163a  :     0.011277 

STATE 37:  E=   0.175046 au      4.763 eV    38418.1 cm**-1 <S**2> =   0.000000
   150a -> 161a  :     0.015616 
   150a -> 162a  :     0.178194 
   150a -> 164a  :     0.049261 
   151a -> 160a  :     0.016745 
   151a -> 163a  :     0.142821 
   152a -> 161a  :     0.041174 
   152a -> 162a  :     0.045446 
   152a -> 164a  :     0.019355 
   153a -> 163a  :     0.150449 
   154a -> 160a  :     0.069843 
   154a -> 161a  :     0.011161 
   156a -> 164a  :     0.036966 
   157a -> 161a  :     0.016384 
   158a -> 163a  :     0.012699 

STATE 38:  E=   0.184183 au      5.012 eV    40423.4 cm**-1 <S**2> =   0.000000
   152a -> 160a  :     0.050061 
   152a -> 161a  :     0.020865 
   154a -> 160a  :     0.042968 
   154a -> 161a  :     0.025544 
   155a -> 160a  :     0.240172 
   155a -> 161a  :     0.091377 
   156a -> 160a  :     0.207912 
   156a -> 161a  :     0.083226 
   158a -> 160a  :     0.108262 
   158a -> 161a  :     0.045353 

STATE 39:  E=   0.185036 au      5.035 eV    40610.7 cm**-1 <S**2> =   0.000000
   148a -> 159a  :     0.010567 
   149a -> 159a  :     0.045323 
   149a -> 162a  :     0.014645 
   149a -> 164a  :     0.027622 
   151a -> 159a  :     0.017017 
   153a -> 159a  :     0.040693 
   154a -> 159a  :     0.155263 
   154a -> 160a  :     0.024507 
   154a -> 166a  :     0.030548 
   156a -> 168a  :     0.012415 
   157a -> 159a  :     0.015138 
   157a -> 165a  :     0.030147 
   158a -> 159a  :     0.027570 
   158a -> 165a  :     0.302177 
   158a -> 166a  :     0.045152 

STATE 40:  E=   0.187617 au      5.105 eV    41177.3 cm**-1 <S**2> =   0.000000
   149a -> 160a  :     0.010633 
   149a -> 161a  :     0.014338 
   154a -> 159a  :     0.011343 
   155a -> 159a  :     0.010569 
   155a -> 160a  :     0.124491 
   155a -> 161a  :     0.297152 
   156a -> 160a  :     0.093121 
   156a -> 161a  :     0.230173 
   158a -> 160a  :     0.033349 
   158a -> 161a  :     0.081273 


-------------------------
TD-DFT-EXCITATION SPECTRA
-------------------------

Center of mass = (  0.0489, -0.0060,  0.0290)
Calculating the Dipole integrals                  ... done
Transforming integrals                            ... done
Calculating the Linear Momentum integrals         ... done
Transforming integrals                            ... done
Calculating angular momentum integrals            ... done
Transforming integrals                            ... done

-----------------------------------------------------------------------------
         ABSORPTION SPECTRUM VIA TRANSITION ELECTRIC DIPOLE MOMENTS
-----------------------------------------------------------------------------
State   Energy    Wavelength  fosc         T2        TX        TY        TZ  
        (cm-1)      (nm)                 (au**2)    (au)      (au)      (au) 
-----------------------------------------------------------------------------
   1   30843.4    324.2   0.000446098   0.00476   0.06696   0.01537  -0.00648
   2   30905.0    323.6   0.000390734   0.00416   0.02849  -0.05780   0.00316
   3   32062.3    311.9   0.000058359   0.00060  -0.01506  -0.01905  -0.00309
   4   28531.2    350.5   0.140440431   1.62049  -0.76087   0.59536  -0.82892
   5   25355.2    394.4   0.086941725   1.12885  -0.69594  -0.80056   0.06013
   6   25671.9    389.5   0.121621593   1.55965   0.98124  -0.69541  -0.33649
   7   26228.1    381.3   0.008169958   0.10255   0.23715   0.21263  -0.03317
   8   27617.7    362.1   0.017448367   0.20799  -0.33231  -0.30952   0.04192
   9   26284.9    380.4   0.010705908   0.13409  -0.27131   0.24297  -0.03804
  10   26925.9    371.4   0.005102336   0.06238  -0.19060   0.13342  -0.09085
  11   29291.5    341.4   0.001253354   0.01409  -0.01567   0.11764  -0.00161
  12   23997.2    416.7   0.005534998   0.07593  -0.15716   0.21331   0.07571
  13   26706.5    374.4   0.029267404   0.36078  -0.11349   0.44393  -0.38836
  14   35508.5    281.6   0.005431195   0.05035   0.20392   0.06632   0.06614
  15   30815.5    324.5   0.003097947   0.03310   0.13926   0.04966   0.10600
  16   30352.4    329.5   0.006633880   0.07195   0.06041   0.08971  -0.24547
  17   29128.1    343.3   0.023990060   0.27114  -0.28055  -0.43163   0.07825
  18   27545.7    363.0   0.066096381   0.78995   0.02504  -0.49645  -0.73679
  19   28873.9    346.3   0.216942876   2.47352  -0.40348  -1.37880   0.64003
  20   28711.6    348.3   0.568398626   6.51734  -2.32382   1.03882  -0.19512
  21   32270.6    309.9   0.436574622   4.45376   1.66063  -0.10062   1.29844
  22   27428.9    364.6   0.010692548   0.12834  -0.05385  -0.33863   0.10375
  23   35054.7    285.3   0.463872251   4.35640  -1.13281  -1.69208   0.45825
  24   30540.7    327.4   0.015978147   0.17224  -0.38339   0.12632   0.09639
  25   26900.0    371.7   0.057660541   0.70567   0.12419  -0.27344  -0.78452
  26   25405.5    393.6   0.001995228   0.02585   0.08157  -0.00385  -0.13851
  27   35509.0    281.6   1.132134959  10.49628  -0.49911  -0.33464  -3.18358
  28   28189.7    354.7   0.227235559   2.65376  -0.90217  -0.66438  -1.18256
  29   26169.7    382.1   0.057188228   0.71942   0.68421  -0.49218  -0.09507
  30   26240.7    381.1   0.008284877   0.10394  -0.09044  -0.13120   0.28026
  31   29562.4    338.3   0.006697389   0.07458  -0.18947  -0.19633  -0.01178
  32   27402.1    364.9   0.006276623   0.07541  -0.23525  -0.09842  -0.10187
  33   27910.3    358.3   0.016406981   0.19353  -0.25259  -0.04625  -0.35719
  34   30528.2    327.6   0.088280547   0.95201   0.79313   0.53426   0.19368
  35   37116.7    269.4   0.073917174   0.65562   0.66190   0.43987  -0.15496
  36   37005.8    270.2   0.401553939   3.57232   1.43904  -1.11861  -0.50019
  37   38418.1    260.3   0.099867964   0.85579  -0.51874  -0.66078   0.38739
  38   40423.4    247.4   0.003887118   0.03166   0.00106   0.17214   0.04498
  39   40610.7    246.2   0.215270545   1.74510  -0.39106   1.02831  -0.73126
  40   41177.3    242.9   0.001258753   0.01006   0.06411  -0.06400   0.04310

-----------------------------------------------------------------------------
         ABSORPTION SPECTRUM VIA TRANSITION VELOCITY DIPOLE MOMENTS
-----------------------------------------------------------------------------
State   Energy    Wavelength   fosc        P2         PX        PY        PZ  
        (cm-1)      (nm)                 (au**2)     (au)      (au)      (au) 
-----------------------------------------------------------------------------
   1   30843.4    324.2   0.000434255   0.00009  -0.00928  -0.00201   0.00116
   2   30905.0    323.6   0.000380744   0.00008  -0.00369   0.00817  -0.00039
   3   32062.3    311.9   0.000050957   0.00001   0.00202   0.00266   0.00014
   4   28531.2    350.5   0.184504974   0.03598   0.10882  -0.09359   0.12401
   5   25355.2    394.4   0.174580287   0.03025   0.11270   0.13202  -0.01111
   6   25671.9    389.5   0.246803915   0.04330  -0.16337   0.11599   0.05621
   7   26228.1    381.3   0.015568992   0.00279  -0.03877  -0.03536   0.00610
   8   27617.7    362.1   0.030904734   0.00583   0.05448   0.05285  -0.00849
   9   26284.9    380.4   0.019875079   0.00357   0.04348  -0.04087   0.00301
  10   26925.9    371.4   0.010445776   0.00192   0.03339  -0.02390   0.01537
  11   29291.5    341.4   0.001712571   0.00034   0.00416  -0.01804  -0.00023
  12   23997.2    416.7   0.012869813   0.00211   0.02483  -0.03627  -0.01336
  13   26706.5    374.4   0.056074938   0.01024   0.01667  -0.07443   0.06646
  14   35508.5    281.6   0.005446407   0.00132  -0.03275  -0.01123  -0.01110
  15   30815.5    324.5   0.004752634   0.00100  -0.02393  -0.00938  -0.01845
  16   30352.4    329.5   0.010816555   0.00224  -0.01266  -0.01604   0.04274
  17   29128.1    343.3   0.041851553   0.00833   0.04877   0.07594  -0.01367
  18   27545.7    363.0   0.127732564   0.02405  -0.00409   0.08625   0.12881
  19   28873.9    346.3   0.371960956   0.07340   0.06596   0.23740  -0.11267
  20   28711.6    348.3   0.998110023   0.19586   0.40231  -0.18083   0.03619
  21   32270.6    309.9   0.622766649   0.13735  -0.29082   0.02151  -0.22872
  22   27428.9    364.6   0.022736981   0.00426   0.01070   0.06160  -0.01879
  23   35054.7    285.3   0.615611400   0.14749   0.20748   0.31186  -0.08476
  24   30540.7    327.4   0.029311085   0.00612   0.07450  -0.01064  -0.02133
  25   26900.0    371.7   0.138244399   0.02542  -0.02924   0.05375   0.14721
  26   25405.5    393.6   0.004254804   0.00074  -0.01128   0.00270   0.02458
  27   35509.0    281.6   1.485006144   0.36039   0.09343   0.05908   0.59006
  28   28189.7    354.7   0.487898459   0.09400   0.17213   0.13261   0.21630
  29   26169.7    382.1   0.161313078   0.02885  -0.13632   0.09916   0.02091
  30   26240.7    381.1   0.021794397   0.00391   0.01981   0.02613  -0.05323
  31   29562.4    338.3   0.015095661   0.00305   0.03764   0.04033   0.00262
  32   27402.1    364.9   0.016004706   0.00300   0.04707   0.02134   0.01807
  33   27910.3    358.3   0.036028952   0.00687   0.04969   0.00837   0.06583
  34   30528.2    327.6   0.185461570   0.03870  -0.15659  -0.11429  -0.03335
  35   37116.7    269.4   0.109915662   0.02788  -0.14029  -0.08710   0.02477
  36   37005.8    270.2   0.623152439   0.15761  -0.30238   0.23486   0.10495
  37   38418.1    260.3   0.145578022   0.03822   0.10993   0.13948  -0.08177
  38   40423.4    247.4   0.005842534   0.00161   0.00254  -0.03872  -0.01042
  39   40610.7    246.2   0.293512274   0.08147   0.08222  -0.22397   0.15666
  40   41177.3    242.9   0.001489960   0.00042  -0.01291   0.01271  -0.00954

-------------------------------------------------------------------
                             CD SPECTRUM
-------------------------------------------------------------------
State  Energy     Wavelength     R         MX        MY        MZ   
       (cm-1)       (nm)     (1e40*cgs)   (au)      (au)      (au)  
-------------------------------------------------------------------
   1   30843.4    324.2     27.91173   0.82763   0.14301  -0.24537
   2   30905.0    323.6     24.73593   0.10870  -0.85935  -0.09386
   3   32062.3    311.9     -2.61967   0.27613  -0.06447   0.85080
   4   28531.2    350.5      1.58714   0.33588  -0.31698  -0.54004
   5   25355.2    394.4    -22.77305   0.13250  -0.06915  -0.19047
   6   25671.9    389.5    -45.09587  -0.04208   0.08972  -0.02387
   7   26228.1    381.3     60.14242   0.20579   0.36745  -0.01918
   8   27617.7    362.1    -15.95385   0.03532   0.05989  -0.08505
   9   26284.9    380.4     53.39090  -0.27520   0.11410  -0.28561
  10   26925.9    371.4    -11.22854   0.05287   0.00917   0.16471
  11   29291.5    341.4     -0.20860  -0.02989  -0.00755   0.01381
  12   23997.2    416.7      5.88872  -0.01198   0.02925   0.05770
  13   26706.5    374.4     15.74540  -0.21610   0.24836   0.26105
  14   35508.5    281.6     10.20684   0.14401  -0.02134  -0.09525
  15   30815.5    324.5    -26.04339  -0.30422  -0.44207   0.08566
  16   30352.4    329.5    -43.12924  -0.44729  -0.44448   0.10018
  17   29128.1    343.3    -145.59171   0.30642   0.49118  -0.13853
  18   27545.7    363.0     87.24323  -0.69398   0.48923  -0.60439
  19   28873.9    346.3    -75.60866  -0.01294   0.25503   0.29066
  20   28711.6    348.3    -703.58816   0.47723  -0.46711  -0.52204
  21   32270.6    309.9    -40.38317  -0.86904   0.67773   1.09800
  22   27428.9    364.6     -5.81574  -0.14550   0.07202   0.04066
  23   35054.7    285.3    -1909.12330   1.15680   1.49218  -0.46732
  24   30540.7    327.4    -55.22600  -0.07067  -1.10751  -0.04498
  25   26900.0    371.7    143.07971   0.01007  -0.01297  -0.38073
  26   25405.5    393.6    -26.86143  -0.48768  -0.20635   0.12989
  27   35509.0    281.6    2087.99293  -1.41581   0.72537  -1.24544
  28   28189.7    354.7    412.32988  -0.17738   0.27630  -0.75949
  29   26169.7    382.1    -62.90350  -0.09198   0.11724   0.13452
  30   26240.7    381.1     11.74919   0.09168   0.03661   0.13564
  31   29562.4    338.3     10.95070  -0.33147   0.17731   0.40422
  32   27402.1    364.9    -39.13749   0.17434   0.35398   0.07030
  33   27910.3    358.3    -62.75919   0.05815  -0.08952   0.34316
  34   30528.2    327.6      8.90626  -0.24668   0.22620   0.48375
  35   37116.7    269.4     30.76663   0.08794  -0.08162  -0.27720
  36   37005.8    270.2     -8.61583   0.03919   0.10137  -0.07740
  37   38418.1    260.3     -6.30863   0.01915  -0.00631  -0.01966
  38   40423.4    247.4      3.52717   0.04000   0.01829   0.09540
  39   40610.7    246.2    -64.58381   0.17001  -0.39885  -0.46446
  40   41177.3    242.9      2.91427  -0.02754  -0.06004   0.09524

-------------------------------------------------------------------
         CD SPECTRUM VIA TRANSITION VELOCITY DIPOLE MOMENTS        
-------------------------------------------------------------------
State  Energy     Wavelength     R         MX        MY        MZ   
       (cm-1)       (nm)     (1e40*cgs)   (au)      (au)      (au)  
-------------------------------------------------------------------
   1   30843.4    324.2     27.68829   0.82763   0.14301  -0.24537
   2   30905.0    323.6     24.71264   0.10870  -0.85935  -0.09386
   3   32062.3    311.9     -1.63421   0.27613  -0.06447   0.85080
   4   28531.2    350.5      2.73989   0.33588  -0.31698  -0.54004
   5   25355.2    394.4    -32.31378   0.13250  -0.06915  -0.19047
   6   25671.9    389.5    -64.24608  -0.04208   0.08972  -0.02387
   7   26228.1    381.3     83.20065   0.20579   0.36745  -0.01918
   8   27617.7    362.1    -21.77352   0.03532   0.05989  -0.08505
   9   26284.9    380.4     68.85377  -0.27520   0.11410  -0.28561
  10   26925.9    371.4    -15.66807   0.05287   0.00917   0.16471
  11   29291.5    341.4     -0.03058  -0.02989  -0.00755   0.01381
  12   23997.2    416.7      9.18209  -0.01198   0.02925   0.05770
  13   26706.5    374.4     18.35665  -0.21610   0.24836   0.26105
  14   35508.5    281.6      9.96400   0.14401  -0.02134  -0.09525
  15   30815.5    324.5    -33.05795  -0.30422  -0.44207   0.08566
  16   30352.4    329.5    -58.19681  -0.44729  -0.44448   0.10018
  17   29128.1    343.3    -192.30693   0.30642   0.49118  -0.13853
  18   27545.7    363.0    123.28224  -0.69398   0.48923  -0.60439
  19   28873.9    346.3    -96.53704  -0.01294   0.25503   0.29066
  20   28711.6    348.3    -928.24072   0.47723  -0.46711  -0.52204
  21   32270.6    309.9    -51.85453  -0.86904   0.67773   1.09800
  22   27428.9    364.6     -7.98140  -0.14550   0.07202   0.04066
  23   35054.7    285.3    -2198.94690   1.15680   1.49218  -0.46732
  24   30540.7    327.4    -25.33225  -0.07067  -1.10751  -0.04498
  25   26900.0    371.7    219.40743   0.01007  -0.01297  -0.38073
  26   25405.5    393.6    -33.13843  -0.48768  -0.20635   0.12989
  27   35509.0    281.6    2402.01253  -1.41581   0.72537  -1.24544
  28   28189.7    354.7    580.57962  -0.17738   0.27630  -0.75949
  29   26169.7    382.1    -106.66311  -0.09198   0.11724   0.13452
  30   26240.7    381.1     17.53832   0.09168   0.03661   0.13564
  31   29562.4    338.3     14.92898  -0.33147   0.17731   0.40422
  32   27402.1    364.9    -64.30311   0.17434   0.35398   0.07030
  33   27910.3    358.3    -91.68324   0.05815  -0.08952   0.34316
  34   30528.2    327.6     11.38421  -0.24668   0.22620   0.48375
  35   37116.7    269.4     33.71502   0.08794  -0.08162  -0.27720
  36   37005.8    270.2    -10.71913   0.03919   0.10137  -0.07740
  37   38418.1    260.3     -7.62959   0.01915  -0.00631  -0.01966
  38   40423.4    247.4      4.09665   0.04000   0.01829   0.09540
  39   40610.7    246.2    -77.82960   0.17001  -0.39885  -0.46446
  40   41177.3    242.9      3.30770  -0.02754  -0.06004   0.09524

Total run time:     7401.544 sec

           *** ORCA-CIS/TD-DFT FINISHED WITHOUT ERROR ***

Maximum memory used throughout the entire CIS-calculation: 3841.0 MB

-----------------------
CIS/TD-DFT TOTAL ENERGY
-----------------------

    E(SCF)  =  -1919.656374396 Eh
    DE(CIS) =      0.140532857 Eh (Root  1)
    ----------------------------- ---------
    E(tot)  =  -1919.515841539 Eh


-------------------------   --------------------
FINAL SINGLE POINT ENERGY     -1919.515841539136
-------------------------   --------------------


                            ***************************************
                            *     ORCA property calculations      *
                            ***************************************


  WARNING: The energy has been calculated at the MP2 level but the densities
           used in the property calculations are still SCF densities
           MP2 response densities have not been calculated 
           use %mp2 Density relaxed end
           or  %mp2 Density unrelaxed end

                                    ---------------------
                                    Active property flags
                                    ---------------------
   (+) Dipole Moment


------------------------------------------------------------------------------
                       ORCA ELECTRIC PROPERTIES CALCULATION
------------------------------------------------------------------------------

Dipole Moment Calculation                       ... on
Quadrupole Moment Calculation                   ... off
Polarizability Calculation                      ... off
GBWName                                         ... Ru-PRC_2_SCS-PBE-QIDH_def2SVP.gbw
Electron density                                ... Ru-PRC_2_SCS-PBE-QIDH_def2SVP.scfp
The origin for moment calculation is the CENTER OF MASS  = ( 0.048935, -0.006031  0.029029)

-------------
DIPOLE MOMENT
-------------
                                X             Y             Z
Electronic contribution:     35.80369      -1.76154      19.80034
Nuclear contribution   :    -34.75061       1.93911     -19.30544
                        -----------------------------------------
Total Dipole Moment    :      1.05309       0.17757       0.49490
                        -----------------------------------------
Magnitude (a.u.)       :      1.17705
Magnitude (Debye)      :      2.99183



--------------------
Rotational spectrum 
--------------------
 
Rotational constants in cm-1:     0.002931     0.002526     0.002104 
Rotational constants in MHz :    87.864409    75.721626    63.072758 

 Dipole components along the rotational axes: 
x,y,z [a.u.] :    -1.046034     0.172343     0.511431 
x,y,z [Debye]:    -2.658806     0.438061     1.299954 

 

Timings for individual modules:

Sum of individual times         ...     7882.782 sec (= 131.380 min)
GTO integral calculation        ...        2.946 sec (=   0.049 min)   0.0 %
SCF iterations                  ...      326.822 sec (=   5.447 min)   4.1 %
MP2 module                      ...      151.200 sec (=   2.520 min)   1.9 %
CIS module                      ...     7401.815 sec (= 123.364 min)  93.9 %
                             ****ORCA TERMINATED NORMALLY****
TOTAL RUN TIME: 0 days 2 hours 11 minutes 24 seconds 512 msec
