
                                 *****************
                                 * O   R   C   A *
                                 *****************

                                            #,                                       
                                            ###                                      
                                            ####                                     
                                            #####                                    
                                            ######                                   
                                           ########,                                 
                                     ,,################,,,,,                         
                               ,,#################################,,                 
                          ,,##########################################,,             
                       ,#########################################, ''#####,          
                    ,#############################################,,   '####,        
                  ,##################################################,,,,####,       
                ,###########''''           ''''###############################       
              ,#####''   ,,,,##########,,,,          '''####'''          '####       
            ,##' ,,,,###########################,,,                        '##       
           ' ,,###''''                  '''############,,,                           
         ,,##''                                '''############,,,,        ,,,,,,###''
      ,#''                                            '''#######################'''  
     '                                                          ''''####''''         
             ,#######,   #######,   ,#######,      ##                                
            ,#'     '#,  ##    ##  ,#'     '#,    #''#        ######   ,####,        
            ##       ##  ##   ,#'  ##            #'  '#       #        #'  '#        
            ##       ##  #######   ##           ,######,      #####,   #    #        
            '#,     ,#'  ##    ##  '#,     ,#' ,#      #,         ##   #,  ,#        
             '#######'   ##     ##  '#######'  #'      '#     #####' # '####'        



                  #######################################################
                  #                        -***-                        #
                  #          Department of theory and spectroscopy      #
                  #    Directorship and core code : Frank Neese         #
                  #        Max Planck Institute fuer Kohlenforschung    #
                  #                Kaiser Wilhelm Platz 1               #
                  #                 D-45470 Muelheim/Ruhr               #
                  #                      Germany                        #
                  #                                                     #
                  #                  All rights reserved                #
                  #                        -***-                        #
                  #######################################################


                         Program Version 5.0.4 -  RELEASE  -


 With contributions from (in alphabetic order):
   Daniel Aravena         : Magnetic Suceptibility
   Michael Atanasov       : Ab Initio Ligand Field Theory (pilot matlab implementation)
   Alexander A. Auer      : GIAO ZORA, VPT2 properties, NMR spectrum
   Ute Becker             : Parallelization
   Giovanni Bistoni       : ED, misc. LED, open-shell LED, HFLD
   Martin Brehm           : Molecular dynamics
   Dmytro Bykov           : SCF Hessian
   Vijay G. Chilkuri      : MRCI spin determinant printing, contributions to CSF-ICE
   Dipayan Datta          : RHF DLPNO-CCSD density
   Achintya Kumar Dutta   : EOM-CC, STEOM-CC
   Dmitry Ganyushin       : Spin-Orbit,Spin-Spin,Magnetic field MRCI
   Miquel Garcia          : C-PCM and meta-GGA Hessian, CC/C-PCM, Gaussian charge scheme
   Yang Guo               : DLPNO-NEVPT2, F12-NEVPT2, CIM, IAO-localization
   Andreas Hansen         : Spin unrestricted coupled pair/coupled cluster methods
   Benjamin Helmich-Paris : MC-RPA, TRAH-SCF, COSX integrals
   Lee Huntington         : MR-EOM, pCC
   Robert Izsak           : Overlap fitted RIJCOSX, COSX-SCS-MP3, EOM
   Marcus Kettner         : VPT2
   Christian Kollmar      : KDIIS, OOCD, Brueckner-CCSD(T), CCSD density, CASPT2, CASPT2-K
   Simone Kossmann        : Meta GGA functionals, TD-DFT gradient, OOMP2, MP2 Hessian
   Martin Krupicka        : Initial AUTO-CI
   Lucas Lang             : DCDCAS
   Marvin Lechner         : AUTO-CI (C++ implementation), FIC-MRCC
   Dagmar Lenk            : GEPOL surface, SMD
   Dimitrios Liakos       : Extrapolation schemes; Compound Job, initial MDCI parallelization
   Dimitrios Manganas     : Further ROCIS development; embedding schemes
   Dimitrios Pantazis     : SARC Basis sets
   Anastasios Papadopoulos: AUTO-CI, single reference methods and gradients
   Taras Petrenko         : DFT Hessian,TD-DFT gradient, ASA, ECA, R-Raman, ABS, FL, XAS/XES, NRVS
   Peter Pinski           : DLPNO-MP2, DLPNO-MP2 Gradient
   Christoph Reimann      : Effective Core Potentials
   Marius Retegan         : Local ZFS, SOC
   Christoph Riplinger    : Optimizer, TS searches, QM/MM, DLPNO-CCSD(T), (RO)-DLPNO pert. Triples
   Tobias Risthaus        : Range-separated hybrids, TD-DFT gradient, RPA, STAB
   Michael Roemelt        : Original ROCIS implementation
   Masaaki Saitow         : Open-shell DLPNO-CCSD energy and density
   Barbara Sandhoefer     : DKH picture change effects
   Avijit Sen             : IP-ROCIS
   Kantharuban Sivalingam : CASSCF convergence, NEVPT2, FIC-MRCI
   Bernardo de Souza      : ESD, SOC TD-DFT
   Georgi Stoychev        : AutoAux, RI-MP2 NMR, DLPNO-MP2 response
   Willem Van den Heuvel  : Paramagnetic NMR
   Boris Wezisla          : Elementary symmetry handling
   Frank Wennmohs         : Technical directorship


 We gratefully acknowledge several colleagues who have allowed us to
 interface, adapt or use parts of their codes:
   Stefan Grimme, W. Hujo, H. Kruse, P. Pracht,  : VdW corrections, initial TS optimization,
                  C. Bannwarth, S. Ehlert          DFT functionals, gCP, sTDA/sTD-DF
   Ed Valeev, F. Pavosevic, A. Kumar             : LibInt (2-el integral package), F12 methods
   Garnet Chan, S. Sharma, J. Yang, R. Olivares  : DMRG
   Ulf Ekstrom                                   : XCFun DFT Library
   Mihaly Kallay                                 : mrcc  (arbitrary order and MRCC methods)
   Jiri Pittner, Ondrej Demel                    : Mk-CCSD
   Frank Weinhold                                : gennbo (NPA and NBO analysis)
   Christopher J. Cramer and Donald G. Truhlar   : smd solvation model
   Lars Goerigk                                  : TD-DFT with DH, B97 family of functionals
   V. Asgeirsson, H. Jonsson                     : NEB implementation
   FAccTs GmbH                                   : IRC, NEB, NEB-TS, DLPNO-Multilevel, CI-OPT
                                                   MM, QMMM, 2- and 3-layer-ONIOM, Crystal-QMMM,
                                                   LR-CPCM, SF, NACMEs, symmetry and pop. for TD-DFT,
                                                   nearIR, NL-DFT gradient (VV10), updates on ESD,
                                                   ML-optimized integration grids
   S Lehtola, MJT Oliveira, MAL Marques          : LibXC Library
   Liviu Ungur et al                             : ANISO software


 Your calculation uses the libint2 library for the computation of 2-el integrals
 For citations please refer to: http://libint.valeyev.net

 Your ORCA version has been built with support for libXC version: 5.1.0
 For citations please refer to: https://tddft.org/programs/libxc/

 This ORCA versions uses:
   CBLAS   interface :  Fast vector & matrix operations
   LAPACKE interface :  Fast linear algebra routines
   SCALAPACK package :  Parallel linear algebra routines
   Shared memory     :  Shared parallel matrices
   BLAS/LAPACK       :  OpenBLAS 0.3.15  USE64BITINT DYNAMIC_ARCH NO_AFFINITY Zen SINGLE_THREADED
        Core in use  :  Zen
   Copyright (c) 2011-2014, The OpenBLAS Project


Your calculation utilizes the SMD solvation module
Please cite in your paper:
A.V. Marenich, C.J. Cramer, D.G. Truhlar J. Phys. Chem. B, 113, (2009), 6378 

================================================================================

cite the ECPs for Au [Def2-ECP] as follows:
Ce-Yb(ecp-28): M. Dolg, H. Stoll, H.Preuss, J. Chem. Phys., 1989, 90, 1730-1734.
Y-Cd(ecp-28), Hf-Hg(ecp-46): D. Andrae,U. Haeussermann, M. Dolg, H. Stoll, H. Preuss, Theor. Chim. Acta, 1990, 77, 123-141.
In-Sb(ecp-28), Tl-Bi(ecp-46): B. Metz, H. Stoll, M. Dolg, J. Chem. Phys., 2000, 113, 2563-2569.
Te-Xe(ecp-28), Po-Rn(ecp-46): K. A. Peterson, D. Figgen, E. Goll, H. Stoll, M. Dolg, J. Chem. Phys., 2003, 119, 11113-11123.
Rb(ecp-28), Cs(ecp-46): T. Leininger, A. Nicklass, W. Kuechle, H. Stoll, M. Dolg, A. Bergner, Chem. Phys. Lett., 1996, 255, 274-280.
Sr(ecp-28), Ba(ecp-46): M. Kaupp, P. V. Schleyer, H. Stoll and H. Preuss, J. Chem. Phys., 1991, 94, 1360-1366.
La(ecp-46): M. Dolg, H. Stoll, A. Savin, H. Preuss, Theor. Chim. Acta, 1989, 75, 173-194.
Lu(ecp-28): X. Cao, M. Dolg, J. Chem. Phys., 2001, 115, 7348-7355.

ECP parameters for Au [Def2-ECP] have been obtained from:
TURBOMOLE (7.0.2)

----- Orbital basis set information -----
Your calculation utilizes the basis: def2-SVP
   F. Weigend and R. Ahlrichs, Phys. Chem. Chem. Phys. 7, 3297 (2005).

----- AuxJ basis set information -----
Your calculation utilizes the auxiliary basis: def2/J
   F. Weigend, Phys. Chem. Chem. Phys. 8, 1057 (2006).

----- AuxC basis set information -----
Your calculation utilizes the auxiliary basis: def2-SVP/C
  H-La, Hf-Rn : A. Hellweg, C. Hattig, S. Hofener and W. Klopper, Theor. Chem. Acc. 117, 587 (2007).
        Ce-Lu : J. Chmela and M. E. Harding, Mol. Phys. (2018).

================================================================================
                                        WARNINGS
                       Please study these warnings very carefully!
================================================================================

INFO   : Checking CIS options ...
  ===> : (D) CORRECTION FOUND - SETTING MODE=3
  ===> : JK MODE FOUND - ACTIVATING RI-MP2 CODE
  ===> : MP2 AND CIS FOUND - CHECKING
WARNING: CIS(D) and MP2 runs must have the same orbital window
  ===> : adjusting orbital windows

WARNING: No MP2 level density has been requested!
         To caclulate MP2 level properties use
         %mp2 Density relaxed end
         or
         %mp2 Density unrelaxed end
         Otherwise for double-hybrid DFT only the energy is correct!

WARNING: The frozen-core approximation is turned on by default for 
         the MP2 part of double-hybrid DFT.

WARNING: CIS/ROCIS methods need fully converged wavefunctions
  ===> : Setting SCFConvForced true
         You can overwrite this default with %scf ConvForced false 


INFO   : the flag for use of the SHARK integral package has been found!

================================================================================
                                       INPUT FILE
================================================================================
NAME = Au-alkyne_2-full_SCS-PBE-QIDH_def2SVP.inp
|  1> %maxcore 6000
|  2> %pal
|  3>  nprocs 8
|  4> end
|  5> ! RI-SCS-PBE-QIDH def2-SVP def2/J def2-SVP/C RIJCOSX CPCM TIGHTSCF
|  6> 
|  7> %TDDFT 
|  8>     DCORR      4
|  9>     NROOTS    40
| 10>     doscs true
| 11>     TDA       FALSE
| 12> END
| 13> 
| 14> %CPCM
| 15>     SMD		TRUE
| 16>     SMDsolvent	"Acetonitrile"
| 17> END
| 18> 
| 19> * xyz 0 1
| 20> Au                 -4.55610900   -0.00065700   -0.00742000
| 21> C                  -7.22581000    1.19989100    0.00366500
| 22> C                  -7.22686800   -1.19841200    0.02526000
| 23> C                  -8.62468400   -1.21246900    0.03707300
| 24> C                  -9.30875400    0.00179600    0.03062700
| 25> C                  -8.62362200    1.21536500    0.01368300
| 26> C                  -6.31258900    2.35092900   -0.01260700
| 27> C                  -4.91233800    2.08377800   -0.02103800
| 28> C                  -4.03073100    3.16317200   -0.03755100
| 29> C                  -4.50455500    4.48040500   -0.04537200
| 30> C                  -5.87658500    4.73454900   -0.03628100
| 31> C                  -6.77911900    3.67397100   -0.01984200
| 32> H                  -9.16746500   -2.15763800    0.05044200
| 33> H                 -10.40062400    0.00235800    0.03897900
| 34> H                  -9.16557800    2.16109200    0.00852800
| 35> H                  -2.95037500    2.98720800   -0.04490100
| 36> H                  -3.79628400    5.31345200   -0.05864300
| 37> H                  -6.24576900    5.76258400   -0.04220600
| 38> H                  -7.85301400    3.87861300   -0.01305900
| 39> C                  -6.31470300   -2.35038600    0.02780500
| 40> C                  -6.78246400   -3.67289900    0.04490100
| 41> C                  -4.91422200   -2.08473900    0.01291500
| 42> C                  -5.88092600   -4.73444300    0.04796700
| 43> H                  -7.85653800   -3.87638500    0.05631300
| 44> C                  -4.03362600   -3.16507900    0.01645300
| 45> C                  -4.50866400   -4.48178700    0.03387300
| 46> H                  -6.25106000   -5.76206300    0.06165200
| 47> H                  -2.95310100   -2.99029000    0.00606400
| 48> H                  -3.80115700   -5.31558400    0.03662800
| 49> N                  -6.60305800    0.00041700    0.00940600
| 50> C                  -2.57853500   -0.00180100   -0.01843800
| 51> C                  -1.34813500   -0.00248200   -0.02012500
| 52> C                   0.07667200   -0.00330700   -0.01956400
| 53> C                   0.80462800    0.81994600   -0.90326900
| 54> C                   0.80171100   -0.82692900    0.86626300
| 55> C                   2.19301300    0.81303300   -0.90817700
| 56> H                   0.26577800    1.46052700   -1.60480400
| 57> C                   2.18999800   -0.81962500    0.87629500
| 58> H                   0.26045900   -1.46745900    1.56599600
| 59> C                   2.90003800   -0.00291800   -0.01440900
| 60> H                   2.73833300    1.43568700   -1.62033400
| 61> H                   2.73277800   -1.44197600    1.59065300
| 62> C                   5.13017900   -1.12972200   -0.01493000
| 63> C                   5.12780800    1.12811300    0.00198500
| 64> C                   4.79428800   -2.48486500   -0.07171500
| 65> C                   6.48497100   -0.72070100   -0.00576700
| 66> C                   4.78862900    2.48255700    0.05565000
| 67> C                   6.48344900    0.72182400    0.00655100
| 68> C                   5.83116500   -3.41123200   -0.09215700
| 69> H                   3.75484700   -2.81707200   -0.10659600
| 70> C                   7.50720400   -1.68032400   -0.02511400
| 71> C                   5.82336700    3.41101000    0.08704100
| 72> H                   3.74821700    2.81265700    0.07988500
| 73> C                   7.50347700    1.68350800    0.03675600
| 74> C                   7.19623400   -3.04103700   -0.06189600
| 75> H                   5.56919400   -4.47217500   -0.13525100
| 76> H                   8.54544900   -1.34193300   -0.01524400
| 77> C                   7.18941600    3.04358200    0.07083200
| 78> H                   5.55884300    4.47141000    0.12773300
| 79> H                   8.54243700    1.34717700    0.03758300
| 80> N                   4.31049800   -0.00165500   -0.01068900
| 81> C                   8.25679100    4.14021400    0.09477500
| 82> C                   8.26601200   -4.13550300   -0.07468100
| 83> C                   8.11580700   -4.98114700   -1.34421600
| 84> H                   8.87453700   -5.77843600   -1.37196300
| 85> H                   7.13068800   -5.46648600   -1.40458300
| 86> H                   8.24218200   -4.37042000   -2.25119600
| 87> C                   9.67632800   -3.55430600   -0.04457300
| 88> H                  10.41917600   -4.36540600   -0.05285800
| 89> H                   9.88104100   -2.91615600   -0.91706500
| 90> H                   9.85868800   -2.95468300    0.85966600
| 91> C                   8.08535600   -5.03588800    1.15279500
| 92> H                   8.18763600   -4.46526500    2.08849800
| 93> H                   7.09971300   -5.52383800    1.16691700
| 94> H                   8.84456400   -5.83315000    1.16517000
| 95> C                   8.09064200    4.98676200    1.36171900
| 96> H                   8.84784700    5.78517900    1.39748400
| 97> H                   7.10424100    5.47080600    1.41025900
| 98> H                   8.20740200    4.37706200    2.27067500
| 99> C                   9.66852100    3.56183200    0.08113200
|100> H                   9.86237900    2.96192500   -0.82051900
|101> H                  10.40959800    4.37443100    0.09724200
|102> H                   9.86451800    2.92471300    0.95638000
|103> C                   8.08812900    5.03904600   -1.13554000
|104> H                   8.20281700    4.46782900   -2.06943900
|105> H                   7.10140500    5.52432100   -1.16162900
|106> H                   8.84534900    5.83828400   -1.13983900
|107> *
|108> 
|109>                          ****END OF INPUT****
================================================================================

                       ****************************
                       * Single Point Calculation *
                       ****************************

---------------------------------
CARTESIAN COORDINATES (ANGSTROEM)
---------------------------------
  Au    -4.556109   -0.000657   -0.007420
  C     -7.225810    1.199891    0.003665
  C     -7.226868   -1.198412    0.025260
  C     -8.624684   -1.212469    0.037073
  C     -9.308754    0.001796    0.030627
  C     -8.623622    1.215365    0.013683
  C     -6.312589    2.350929   -0.012607
  C     -4.912338    2.083778   -0.021038
  C     -4.030731    3.163172   -0.037551
  C     -4.504555    4.480405   -0.045372
  C     -5.876585    4.734549   -0.036281
  C     -6.779119    3.673971   -0.019842
  H     -9.167465   -2.157638    0.050442
  H    -10.400624    0.002358    0.038979
  H     -9.165578    2.161092    0.008528
  H     -2.950375    2.987208   -0.044901
  H     -3.796284    5.313452   -0.058643
  H     -6.245769    5.762584   -0.042206
  H     -7.853014    3.878613   -0.013059
  C     -6.314703   -2.350386    0.027805
  C     -6.782464   -3.672899    0.044901
  C     -4.914222   -2.084739    0.012915
  C     -5.880926   -4.734443    0.047967
  H     -7.856538   -3.876385    0.056313
  C     -4.033626   -3.165079    0.016453
  C     -4.508664   -4.481787    0.033873
  H     -6.251060   -5.762063    0.061652
  H     -2.953101   -2.990290    0.006064
  H     -3.801157   -5.315584    0.036628
  N     -6.603058    0.000417    0.009406
  C     -2.578535   -0.001801   -0.018438
  C     -1.348135   -0.002482   -0.020125
  C      0.076672   -0.003307   -0.019564
  C      0.804628    0.819946   -0.903269
  C      0.801711   -0.826929    0.866263
  C      2.193013    0.813033   -0.908177
  H      0.265778    1.460527   -1.604804
  C      2.189998   -0.819625    0.876295
  H      0.260459   -1.467459    1.565996
  C      2.900038   -0.002918   -0.014409
  H      2.738333    1.435687   -1.620334
  H      2.732778   -1.441976    1.590653
  C      5.130179   -1.129722   -0.014930
  C      5.127808    1.128113    0.001985
  C      4.794288   -2.484865   -0.071715
  C      6.484971   -0.720701   -0.005767
  C      4.788629    2.482557    0.055650
  C      6.483449    0.721824    0.006551
  C      5.831165   -3.411232   -0.092157
  H      3.754847   -2.817072   -0.106596
  C      7.507204   -1.680324   -0.025114
  C      5.823367    3.411010    0.087041
  H      3.748217    2.812657    0.079885
  C      7.503477    1.683508    0.036756
  C      7.196234   -3.041037   -0.061896
  H      5.569194   -4.472175   -0.135251
  H      8.545449   -1.341933   -0.015244
  C      7.189416    3.043582    0.070832
  H      5.558843    4.471410    0.127733
  H      8.542437    1.347177    0.037583
  N      4.310498   -0.001655   -0.010689
  C      8.256791    4.140214    0.094775
  C      8.266012   -4.135503   -0.074681
  C      8.115807   -4.981147   -1.344216
  H      8.874537   -5.778436   -1.371963
  H      7.130688   -5.466486   -1.404583
  H      8.242182   -4.370420   -2.251196
  C      9.676328   -3.554306   -0.044573
  H     10.419176   -4.365406   -0.052858
  H      9.881041   -2.916156   -0.917065
  H      9.858688   -2.954683    0.859666
  C      8.085356   -5.035888    1.152795
  H      8.187636   -4.465265    2.088498
  H      7.099713   -5.523838    1.166917
  H      8.844564   -5.833150    1.165170
  C      8.090642    4.986762    1.361719
  H      8.847847    5.785179    1.397484
  H      7.104241    5.470806    1.410259
  H      8.207402    4.377062    2.270675
  C      9.668521    3.561832    0.081132
  H      9.862379    2.961925   -0.820519
  H     10.409598    4.374431    0.097242
  H      9.864518    2.924713    0.956380
  C      8.088129    5.039046   -1.135540
  H      8.202817    4.467829   -2.069439
  H      7.101405    5.524321   -1.161629
  H      8.845349    5.838284   -1.139839

----------------------------
CARTESIAN COORDINATES (A.U.)
----------------------------
  NO LB      ZA    FRAG     MASS         X           Y           Z
   0 Au   19.0000*   0   196.966   -8.609798   -0.001242   -0.014022
   1 C     6.0000    0    12.011  -13.654802    2.267465    0.006926
   2 C     6.0000    0    12.011  -13.656801   -2.264670    0.047734
   3 C     6.0000    0    12.011  -16.298291   -2.291234    0.070058
   4 C     6.0000    0    12.011  -17.590996    0.003394    0.057877
   5 C     6.0000    0    12.011  -16.296284    2.296707    0.025857
   6 C     6.0000    0    12.011  -11.929064    4.442612   -0.023824
   7 C     6.0000    0    12.011   -9.282973    3.937770   -0.039756
   8 C     6.0000    0    12.011   -7.616978    5.977529   -0.070961
   9 C     6.0000    0    12.011   -8.512375    8.466738   -0.085741
  10 C     6.0000    0    12.011  -11.105136    8.947001   -0.068561
  11 C     6.0000    0    12.011  -12.810678    6.942799   -0.037496
  12 H     1.0000    0     1.008  -17.323998   -4.077345    0.095322
  13 H     1.0000    0     1.008  -19.654331    0.004456    0.073660
  14 H     1.0000    0     1.008  -17.320432    4.083872    0.016116
  15 H     1.0000    0     1.008   -5.575401    5.645005   -0.084851
  16 H     1.0000    0     1.008   -7.173937   10.040969   -0.110819
  17 H     1.0000    0     1.008  -11.802793   10.889706   -0.079758
  18 H     1.0000    0     1.008  -14.840046    7.329516   -0.024678
  19 C     6.0000    0    12.011  -11.933059   -4.441586    0.052544
  20 C     6.0000    0    12.011  -12.816999   -6.940773    0.084851
  21 C     6.0000    0    12.011   -9.286534   -3.939586    0.024406
  22 C     6.0000    0    12.011  -11.113340   -8.946801    0.090644
  23 H     1.0000    0     1.008  -14.846705   -7.325306    0.106416
  24 C     6.0000    0    12.011   -7.622448   -5.981133    0.031092
  25 C     6.0000    0    12.011   -8.520140   -8.469350    0.064011
  26 H     1.0000    0     1.008  -11.812791  -10.888721    0.116505
  27 H     1.0000    0     1.008   -5.580552   -5.650829    0.011459
  28 H     1.0000    0     1.008   -7.183146  -10.044998    0.069217
  29 N     7.0000    0    14.007  -12.477971    0.000788    0.017775
  30 C     6.0000    0    12.011   -4.872725   -0.003403   -0.034843
  31 C     6.0000    0    12.011   -2.547606   -0.004690   -0.038031
  32 C     6.0000    0    12.011    0.144889   -0.006249   -0.036971
  33 C     6.0000    0    12.011    1.520527    1.549473   -1.706931
  34 C     6.0000    0    12.011    1.515014   -1.562669    1.637000
  35 C     6.0000    0    12.011    4.144194    1.536410   -1.716206
  36 H     1.0000    0     1.008    0.502248    2.759996   -3.032640
  37 C     6.0000    0    12.011    4.138496   -1.548867    1.655958
  38 H     1.0000    0     1.008    0.492196   -2.773096    2.959304
  39 C     6.0000    0    12.011    5.480278   -0.005514   -0.027229
  40 H     1.0000    0     1.008    5.174699    2.713055   -3.061988
  41 H     1.0000    0     1.008    5.164202   -2.724940    3.005899
  42 C     6.0000    0    12.011    9.694633   -2.134865   -0.028214
  43 C     6.0000    0    12.011    9.690153    2.131825    0.003751
  44 C     6.0000    0    12.011    9.059891   -4.695714   -0.135522
  45 C     6.0000    0    12.011   12.254819   -1.361928   -0.010898
  46 C     6.0000    0    12.011    9.049197    4.691353    0.105163
  47 C     6.0000    0    12.011   12.251943    1.364050    0.012380
  48 C     6.0000    0    12.011   11.019305   -6.446294   -0.174151
  49 H     1.0000    0     1.008    7.095633   -5.323495   -0.201437
  50 C     6.0000    0    12.011   14.186560   -3.175352   -0.047459
  51 C     6.0000    0    12.011   11.004569    6.445875    0.164484
  52 H     1.0000    0     1.008    7.083104    5.315151    0.150961
  53 C     6.0000    0    12.011   14.179517    3.181369    0.069459
  54 C     6.0000    0    12.011   13.598911   -5.746727   -0.116966
  55 H     1.0000    0     1.008   10.524251   -8.451186   -0.255587
  56 H     1.0000    0     1.008   16.148558   -2.535886   -0.028807
  57 C     6.0000    0    12.011   13.586027    5.751536    0.133853
  58 H     1.0000    0     1.008   10.504691    8.449740    0.241380
  59 H     1.0000    0     1.008   16.142866    2.545796    0.071022
  60 N     7.0000    0    14.007    8.145661   -0.003127   -0.020199
  61 C     6.0000    0    12.011   15.603074    7.823871    0.179099
  62 C     6.0000    0    12.011   15.620499   -7.814968   -0.141127
  63 C     6.0000    0    12.011   15.336653   -9.413004   -2.540200
  64 H     1.0000    0     1.008   16.770444  -10.919662   -2.592634
  65 H     1.0000    0     1.008   13.475047  -10.330161   -2.654277
  66 H     1.0000    0     1.008   15.575467   -8.258897   -4.254144
  67 C     6.0000    0    12.011   18.285610   -6.716665   -0.084231
  68 H     1.0000    0     1.008   19.689389   -8.249422   -0.099887
  69 H     1.0000    0     1.008   18.672461   -5.510736   -1.733002
  70 H     1.0000    0     1.008   18.630220   -5.583542    1.624533
  71 C     6.0000    0    12.011   15.279109   -9.516449    2.178467
  72 H     1.0000    0     1.008   15.472390   -8.438128    3.946689
  73 H     1.0000    0     1.008   13.416513  -10.438541    2.205154
  74 H     1.0000    0     1.008   16.713804  -11.023056    2.201852
  75 C     6.0000    0    12.011   15.289098    9.423614    2.573276
  76 H     1.0000    0     1.008   16.720008   10.932404    2.640862
  77 H     1.0000    0     1.008   13.425070   10.338325    2.665003
  78 H     1.0000    0     1.008   15.509742    8.271448    4.290954
  79 C     6.0000    0    12.011   18.270857    6.730887    0.153317
  80 H     1.0000    0     1.008   18.637195    5.597227   -1.550556
  81 H     1.0000    0     1.008   19.671289    8.266477    0.183761
  82 H     1.0000    0     1.008   18.641237    5.526907    1.807296
  83 C     6.0000    0    12.011   15.284349    9.522417   -2.145860
  84 H     1.0000    0     1.008   15.501078    8.442973   -3.910673
  85 H     1.0000    0     1.008   13.419711   10.439454   -2.195161
  86 H     1.0000    0     1.008   16.715287   11.032758   -2.153984
* core charge reduced due to ECP

--------------------------------
INTERNAL COORDINATES (ANGSTROEM)
--------------------------------
 Au     0   0   0     0.000000000000     0.00000000     0.00000000
 C      1   0   0     2.927241330490     0.00000000     0.00000000
 C      2   1   0     2.398400455136    65.81549074     0.00000000
 C      3   2   1     1.397936592294    90.60575953   179.99078595
 C      4   3   2     1.393711880570   118.81504212     0.05799218
 C      5   4   3     1.393715420852   121.15828711   359.95540582
 C      2   1   3     1.469396423798    75.78356888   179.93660097
 C      7   2   1     1.425532743069   117.62843979     0.00000000
 C      8   7   2     1.393770063122   118.44092369   179.95031649
 C      9   8   7     1.399883254884   120.97661375     0.00000000
 C     10   9   8     1.395398917843   120.27467623     0.00000000
 C     11  10   9     1.392718046110   119.90523517   359.97691601
 H      4   3   2     1.090015771759   120.44672676   180.01975235
 H      5   4   3     1.091902087482   119.42110330   179.95422745
 H      6   5   4     1.090019467023   120.73842611   179.98746992
 H      9   8   7     1.094617028249   119.99193768   180.03470486
 H     10   9   8     1.093522397160   119.84553280   180.01842018
 H     11  10   9     1.092331402417   120.24456594   179.98883070
 H     12  11  10     1.093240517122   119.61019363   180.01710834
 C      3   2   1     1.469386117032   141.59996480     0.00000000
 C     20   3   2     1.402901729098   122.14731056   179.94304263
 C     20   3   2     1.425530452874   117.62988896     0.00000000
 C     21  20   3     1.392715272314   120.18073002   180.06144865
 H     21  20   3     1.093239106242   120.21005789     0.03603702
 C     22  20   3     1.393770550794   118.43988333   179.93574219
 C     23  21  20     1.395398398959   119.90476991     0.00000000
 H     23  21  20     1.092332056465   119.85060596   179.97911569
 H     25  22  20     1.094620208779   119.99189037   180.04757101
 H     26  23  21     1.093522373929   119.88008612   179.97935742
 N      3   2   1     1.351510723841    27.46384452     0.00000000
 C      1   2   3     1.977605023895   155.82004628   180.36687931
 C     31   1   2     1.230401344981   179.75933532    89.84012438
 C     32  31   1     1.424807349291   179.89887180     1.17046107
 C     33  32  31     1.410177282107   121.03964441   222.14773998
 C     33  32  31     1.410221338774   120.97852212    42.08129483
 C     34  33  32     1.388410885242   121.03187151   180.39433731
 H     34  33  32     1.092178875590   119.35636694   359.41868445
 C     35  33  32     1.388342459125   121.03603968   180.59707932
 H     35  33  32     1.092180699195   119.35176602   359.56673242
 C     36  34  33     1.401599665686   120.33643054   359.01042909
 H     36  34  33     1.091897201556   119.92601230   178.18387221
 H     38  35  33     1.091896628699   119.92112405   178.13128372
 C     40  36  34     2.498642912810   135.44970541   152.04653620
 C     43  40  36     2.257899604963    63.13484256    65.86818231
 C     43  40  36     1.397304494573   102.87438107   247.77951294
 C     43  40  36     1.415218535165   136.39349534    65.94348722
 C     44  43  40     1.397297704644   165.89385832     7.54517354
 C     44  43  40     1.415222286695    73.25824707   179.88188110
 C     45  43  40     1.390570964454   117.86768609   179.75826006
 H     45  43  40     1.091794746045   121.68516721     0.19413304
 C     46  43  40     1.402216429381   120.00028386   180.72031108
 C     47  44  48     1.390572938301   117.86838708     1.22359289
 H     47  44  48     1.091792322271   121.68457248   181.65977799
 C     48  44  43     1.402214526620   119.99951455   180.81468325
 C     51  46  43     1.396279028272   120.32684963     0.40150106
 H     49  45  43     1.093657143225   117.91877842   179.92011149
 H     51  46  43     1.092043298503   118.74490311   180.13949279
 C     54  48  44     1.396279617760   120.32824864     0.39899118
 H     52  47  44     1.093653027902   117.91987636   179.92190113
 H     54  48  44     1.092042630619   118.74238607   180.12834135
 N     43  40  36     1.394428228462    27.19166409    65.75115275
 C     58  54  48     1.530511156868   122.78257296   180.44642534
 C     55  51  46     1.530504573879   122.78146575   180.43581303
 C     63  55  51     1.532773444768   109.44794265   239.61191227
 H     64  63  55     1.100959063013   110.66324596   180.21771461
 H     64  63  55     1.099844336154   112.12892251   299.90304617
 H     64  63  55     1.100713781850   111.41470323    60.58008703
 C     63  55  51     1.525676133499   111.93419880   359.92461454
 H     68  63  55     1.099897723577   110.07458716   179.90138560
 H     68  63  55     1.100175042860   112.16763565   299.19656274
 H     68  63  55     1.100205017644   112.15141857    60.61258451
 C     63  55  51     1.532979800629   109.32644667   120.13890106
 H     72  63  55     1.100732442848   111.42194839   299.58729492
 H     72  63  55     1.099903067017   112.11382316    60.24966307
 H     72  63  55     1.100988930250   110.67404169   179.94937280
 C     62  58  54     1.532773990398   109.45482046   239.51240114
 H     76  62  58     1.100957879821   110.66029709   180.18492445
 H     76  62  58     1.099837105365   112.13353078   299.86481486
 H     76  62  58     1.100712495403   111.41666959    60.54795848
 C     62  58  54     1.525678033621   111.93424810   359.82729605
 H     80  62  58     1.100201735417   112.15303084    60.62040458
 H     80  62  58     1.099896261849   110.07444790   179.90810846
 H     80  62  58     1.100179306147   112.16457118   299.20545236
 C     62  58  54     1.532977766862   109.31912102   120.03871470
 H     84  62  58     1.100731366244   111.41920012   299.54897900
 H     84  62  58     1.099907593265   112.11235094    60.20608939
 H     84  62  58     1.100991367107   110.67686333   179.91260251

---------------------------
INTERNAL COORDINATES (A.U.)
---------------------------
 Au     0   0   0     0.000000000000     0.00000000     0.00000000
 C      1   0   0     5.531684442522     0.00000000     0.00000000
 C      2   1   0     4.532320019680    65.81549074     0.00000000
 C      3   2   1     2.641717312022    90.60575953   179.99078595
 C      4   3   2     2.633733763869   118.81504212     0.05799218
 C      5   4   3     2.633740454033   121.15828711   359.95540582
 C      2   1   3     2.776756823141    75.78356888   179.93660097
 C      7   2   1     2.693866479339   117.62843979     0.00000000
 C      8   7   2     2.633843712958   118.44092369   179.95031649
 C      9   8   7     2.645395971194   120.97661375     0.00000000
 C     10   9   8     2.636921802293   120.27467623     0.00000000
 C     11  10   9     2.631855688918   119.90523517   359.97691601
 H      4   3   2     2.059831290279   120.44672676   180.01975235
 H      5   4   3     2.063395910398   119.42110330   179.95422745
 H      6   5   4     2.059838273317   120.73842611   179.98746992
 H      9   8   7     2.068526404917   119.99193768   180.03470486
 H     10   9   8     2.066457851942   119.84553280   180.01842018
 H     11  10   9     2.064207198050   120.24456594   179.98883070
 H     12  11  10     2.065925175868   119.61019363   180.01710834
 C      3   2   1     2.776737346176   141.59996480     0.00000000
 C     20   3   2     2.651100060800   122.14731056   179.94304263
 C     20   3   2     2.693862151496   117.62988896     0.00000000
 C     21  20   3     2.631850447203   120.18073002   180.06144865
 H     21  20   3     2.065922509690   120.21005789     0.03603702
 C     22  20   3     2.633844634525   118.43988333   179.93574219
 C     23  21  20     2.636920821744   119.90476991     0.00000000
 H     23  21  20     2.064208434022   119.85060596   179.97911569
 H     25  22  20     2.068532415248   119.99189037   180.04757101
 H     26  23  21     2.066457808041   119.88008612   179.97935742
 N      3   2   1     2.553985135117    27.46384452     0.00000000
 C      1   2   3     3.737131896229   155.82004628   180.36687931
 C     31   1   2     2.325121576822   179.75933532    89.84012438
 C     32  31   1     2.692495683759   179.89887180     1.17046107
 C     33  32  31     2.664848863459   121.03964441   222.14773998
 C     33  32  31     2.664932118495   120.97852212    42.08129483
 C     34  33  32     2.623716334462   121.03187151   180.39433731
 H     34  33  32     2.063918964120   119.35636694   359.41868445
 C     35  33  32     2.623587027841   121.03603968   180.59707932
 H     35  33  32     2.063922410232   119.35176602   359.56673242
 C     36  34  33     2.648639517541   120.33643054   359.01042909
 H     36  34  33     2.063386677335   119.92601230   178.18387221
 H     38  35  33     2.063385594794   119.92112405   178.13128372
 C     40  36  34     4.721750811675   135.44970541   152.04653620
 C     43  40  36     4.266811891269    63.13484256    65.86818231
 C     43  40  36     2.640522820441   102.87438107   247.77951294
 C     43  40  36     2.674375451111   136.39349534    65.94348722
 C     44  43  40     2.640509989333   165.89385832     7.54517354
 C     44  43  40     2.674382540475    73.25824707   179.88188110
 C     45  43  40     2.627798292600   117.86768609   179.75826006
 H     45  43  40     2.063193064479   121.68516721     0.19413304
 C     46  43  40     2.649805032016   120.00028386   180.72031108
 C     47  44  48     2.627802022630   117.86838708     1.22359289
 H     47  44  48     2.063188484209   121.68457248   181.65977799
 C     48  44  43     2.649801436318   119.99951455   180.81468325
 C     51  46  43     2.638584969972   120.32684963     0.40150106
 H     49  45  43     2.066712485101   117.91877842   179.92011149
 H     51  46  43     2.063662760555   118.74490311   180.13949279
 C     54  48  44     2.638586083943   120.32824864     0.39899118
 H     52  47  44     2.066704708269   117.91987636   179.92190113
 H     54  48  44     2.063661498437   118.74238607   180.12834135
 N     43  40  36     2.635087465202    27.19166409    65.75115275
 C     58  54  48     2.892246931392   122.78257296   180.44642534
 C     55  51  46     2.892234491345   122.78146575   180.43581303
 C     63  55  51     2.896522035959   109.44794265   239.61191227
 H     64  63  55     2.080511113753   110.66324596   180.21771461
 H     64  63  55     2.078404585276   112.12892251   299.90304617
 H     64  63  55     2.080047599529   111.41470323    60.58008703
 C     63  55  51     2.883110061373   111.93419880   359.92461454
 H     68  63  55     2.078505472883   110.07458716   179.90138560
 H     68  63  55     2.079029530381   112.16763565   299.19656274
 H     68  63  55     2.079086174514   112.15141857    60.61258451
 C     63  55  51     2.896911992022   109.32644667   120.13890106
 H     72  63  55     2.080082863705   111.42194839   299.58729492
 H     72  63  55     2.078515570522   112.11382316    60.24966307
 H     72  63  55     2.080567554651   110.67404169   179.94937280
 C     62  58  54     2.896523067050   109.45482046   239.51240114
 H     76  62  58     2.080508877843   110.66029709   180.18492445
 H     76  62  58     2.078390921064   112.13353078   299.86481486
 H     76  62  58     2.080045168496   111.41666959    60.54795848
 C     62  58  54     2.883113652083   111.93424810   359.82729605
 H     80  62  58     2.079079972003   112.15303084    60.62040458
 H     80  62  58     2.078502710619   110.07444790   179.90810846
 H     80  62  58     2.079037586825   112.16457118   299.20545236
 C     62  58  54     2.896908148759   109.31912102   120.03871470
 H     84  62  58     2.080080829219   111.41920012   299.54897900
 H     84  62  58     2.078524123891   112.11235094    60.20608939
 H     84  62  58     2.080572159645   110.67686333   179.91260251

---------------------
BASIS SET INFORMATION
---------------------
There are 4 groups of distinct atoms

 Group   1 Type Au  : 7s6p5d1f contracted to 6s3p2d1f pattern {211111/411/41/1}
 Group   2 Type C   : 7s4p1d contracted to 3s2p1d pattern {511/31/1}
 Group   3 Type H   : 4s1p contracted to 2s1p pattern {31/1}
 Group   4 Type N   : 7s4p1d contracted to 3s2p1d pattern {511/31/1}

Atom   0Au   basis set group =>   1
Atom   1C    basis set group =>   2
Atom   2C    basis set group =>   2
Atom   3C    basis set group =>   2
Atom   4C    basis set group =>   2
Atom   5C    basis set group =>   2
Atom   6C    basis set group =>   2
Atom   7C    basis set group =>   2
Atom   8C    basis set group =>   2
Atom   9C    basis set group =>   2
Atom  10C    basis set group =>   2
Atom  11C    basis set group =>   2
Atom  12H    basis set group =>   3
Atom  13H    basis set group =>   3
Atom  14H    basis set group =>   3
Atom  15H    basis set group =>   3
Atom  16H    basis set group =>   3
Atom  17H    basis set group =>   3
Atom  18H    basis set group =>   3
Atom  19C    basis set group =>   2
Atom  20C    basis set group =>   2
Atom  21C    basis set group =>   2
Atom  22C    basis set group =>   2
Atom  23H    basis set group =>   3
Atom  24C    basis set group =>   2
Atom  25C    basis set group =>   2
Atom  26H    basis set group =>   3
Atom  27H    basis set group =>   3
Atom  28H    basis set group =>   3
Atom  29N    basis set group =>   4
Atom  30C    basis set group =>   2
Atom  31C    basis set group =>   2
Atom  32C    basis set group =>   2
Atom  33C    basis set group =>   2
Atom  34C    basis set group =>   2
Atom  35C    basis set group =>   2
Atom  36H    basis set group =>   3
Atom  37C    basis set group =>   2
Atom  38H    basis set group =>   3
Atom  39C    basis set group =>   2
Atom  40H    basis set group =>   3
Atom  41H    basis set group =>   3
Atom  42C    basis set group =>   2
Atom  43C    basis set group =>   2
Atom  44C    basis set group =>   2
Atom  45C    basis set group =>   2
Atom  46C    basis set group =>   2
Atom  47C    basis set group =>   2
Atom  48C    basis set group =>   2
Atom  49H    basis set group =>   3
Atom  50C    basis set group =>   2
Atom  51C    basis set group =>   2
Atom  52H    basis set group =>   3
Atom  53C    basis set group =>   2
Atom  54C    basis set group =>   2
Atom  55H    basis set group =>   3
Atom  56H    basis set group =>   3
Atom  57C    basis set group =>   2
Atom  58H    basis set group =>   3
Atom  59H    basis set group =>   3
Atom  60N    basis set group =>   4
Atom  61C    basis set group =>   2
Atom  62C    basis set group =>   2
Atom  63C    basis set group =>   2
Atom  64H    basis set group =>   3
Atom  65H    basis set group =>   3
Atom  66H    basis set group =>   3
Atom  67C    basis set group =>   2
Atom  68H    basis set group =>   3
Atom  69H    basis set group =>   3
Atom  70H    basis set group =>   3
Atom  71C    basis set group =>   2
Atom  72H    basis set group =>   3
Atom  73H    basis set group =>   3
Atom  74H    basis set group =>   3
Atom  75C    basis set group =>   2
Atom  76H    basis set group =>   3
Atom  77H    basis set group =>   3
Atom  78H    basis set group =>   3
Atom  79C    basis set group =>   2
Atom  80H    basis set group =>   3
Atom  81H    basis set group =>   3
Atom  82H    basis set group =>   3
Atom  83C    basis set group =>   2
Atom  84H    basis set group =>   3
Atom  85H    basis set group =>   3
Atom  86H    basis set group =>   3
---------------------------------
AUXILIARY/J BASIS SET INFORMATION
---------------------------------
There are 4 groups of distinct atoms

 Group   1 Type Au  : 11s5p5d3f3g contracted to 8s5p5d2f3g pattern {41111111/11111/11111/21/111}
 Group   2 Type C   : 12s5p4d2f1g contracted to 6s4p3d1f1g pattern {711111/2111/211/2/1}
 Group   3 Type H   : 5s2p1d contracted to 3s1p1d pattern {311/2/1}
 Group   4 Type N   : 12s5p4d2f1g contracted to 6s4p3d1f1g pattern {711111/2111/211/2/1}

Atom   0Au   basis set group =>   1
Atom   1C    basis set group =>   2
Atom   2C    basis set group =>   2
Atom   3C    basis set group =>   2
Atom   4C    basis set group =>   2
Atom   5C    basis set group =>   2
Atom   6C    basis set group =>   2
Atom   7C    basis set group =>   2
Atom   8C    basis set group =>   2
Atom   9C    basis set group =>   2
Atom  10C    basis set group =>   2
Atom  11C    basis set group =>   2
Atom  12H    basis set group =>   3
Atom  13H    basis set group =>   3
Atom  14H    basis set group =>   3
Atom  15H    basis set group =>   3
Atom  16H    basis set group =>   3
Atom  17H    basis set group =>   3
Atom  18H    basis set group =>   3
Atom  19C    basis set group =>   2
Atom  20C    basis set group =>   2
Atom  21C    basis set group =>   2
Atom  22C    basis set group =>   2
Atom  23H    basis set group =>   3
Atom  24C    basis set group =>   2
Atom  25C    basis set group =>   2
Atom  26H    basis set group =>   3
Atom  27H    basis set group =>   3
Atom  28H    basis set group =>   3
Atom  29N    basis set group =>   4
Atom  30C    basis set group =>   2
Atom  31C    basis set group =>   2
Atom  32C    basis set group =>   2
Atom  33C    basis set group =>   2
Atom  34C    basis set group =>   2
Atom  35C    basis set group =>   2
Atom  36H    basis set group =>   3
Atom  37C    basis set group =>   2
Atom  38H    basis set group =>   3
Atom  39C    basis set group =>   2
Atom  40H    basis set group =>   3
Atom  41H    basis set group =>   3
Atom  42C    basis set group =>   2
Atom  43C    basis set group =>   2
Atom  44C    basis set group =>   2
Atom  45C    basis set group =>   2
Atom  46C    basis set group =>   2
Atom  47C    basis set group =>   2
Atom  48C    basis set group =>   2
Atom  49H    basis set group =>   3
Atom  50C    basis set group =>   2
Atom  51C    basis set group =>   2
Atom  52H    basis set group =>   3
Atom  53C    basis set group =>   2
Atom  54C    basis set group =>   2
Atom  55H    basis set group =>   3
Atom  56H    basis set group =>   3
Atom  57C    basis set group =>   2
Atom  58H    basis set group =>   3
Atom  59H    basis set group =>   3
Atom  60N    basis set group =>   4
Atom  61C    basis set group =>   2
Atom  62C    basis set group =>   2
Atom  63C    basis set group =>   2
Atom  64H    basis set group =>   3
Atom  65H    basis set group =>   3
Atom  66H    basis set group =>   3
Atom  67C    basis set group =>   2
Atom  68H    basis set group =>   3
Atom  69H    basis set group =>   3
Atom  70H    basis set group =>   3
Atom  71C    basis set group =>   2
Atom  72H    basis set group =>   3
Atom  73H    basis set group =>   3
Atom  74H    basis set group =>   3
Atom  75C    basis set group =>   2
Atom  76H    basis set group =>   3
Atom  77H    basis set group =>   3
Atom  78H    basis set group =>   3
Atom  79C    basis set group =>   2
Atom  80H    basis set group =>   3
Atom  81H    basis set group =>   3
Atom  82H    basis set group =>   3
Atom  83C    basis set group =>   2
Atom  84H    basis set group =>   3
Atom  85H    basis set group =>   3
Atom  86H    basis set group =>   3
---------------------------------
AUXILIARY/C BASIS SET INFORMATION
---------------------------------
There are 4 groups of distinct atoms

 Group   1 Type Au  : 8s8p7d5f3g1h contracted to 8s8p7d5f3g1h pattern {11111111/11111111/1111111/11111/111/1}
 Group   2 Type C   : 8s6p5d3f contracted to 6s5p4d1f pattern {311111/21111/2111/3}
 Group   3 Type H   : 4s3p2d contracted to 3s2p1d pattern {211/21/2}
 Group   4 Type N   : 8s6p5d3f contracted to 6s5p4d1f pattern {311111/21111/2111/3}

Atom   0Au   basis set group =>   1
Atom   1C    basis set group =>   2
Atom   2C    basis set group =>   2
Atom   3C    basis set group =>   2
Atom   4C    basis set group =>   2
Atom   5C    basis set group =>   2
Atom   6C    basis set group =>   2
Atom   7C    basis set group =>   2
Atom   8C    basis set group =>   2
Atom   9C    basis set group =>   2
Atom  10C    basis set group =>   2
Atom  11C    basis set group =>   2
Atom  12H    basis set group =>   3
Atom  13H    basis set group =>   3
Atom  14H    basis set group =>   3
Atom  15H    basis set group =>   3
Atom  16H    basis set group =>   3
Atom  17H    basis set group =>   3
Atom  18H    basis set group =>   3
Atom  19C    basis set group =>   2
Atom  20C    basis set group =>   2
Atom  21C    basis set group =>   2
Atom  22C    basis set group =>   2
Atom  23H    basis set group =>   3
Atom  24C    basis set group =>   2
Atom  25C    basis set group =>   2
Atom  26H    basis set group =>   3
Atom  27H    basis set group =>   3
Atom  28H    basis set group =>   3
Atom  29N    basis set group =>   4
Atom  30C    basis set group =>   2
Atom  31C    basis set group =>   2
Atom  32C    basis set group =>   2
Atom  33C    basis set group =>   2
Atom  34C    basis set group =>   2
Atom  35C    basis set group =>   2
Atom  36H    basis set group =>   3
Atom  37C    basis set group =>   2
Atom  38H    basis set group =>   3
Atom  39C    basis set group =>   2
Atom  40H    basis set group =>   3
Atom  41H    basis set group =>   3
Atom  42C    basis set group =>   2
Atom  43C    basis set group =>   2
Atom  44C    basis set group =>   2
Atom  45C    basis set group =>   2
Atom  46C    basis set group =>   2
Atom  47C    basis set group =>   2
Atom  48C    basis set group =>   2
Atom  49H    basis set group =>   3
Atom  50C    basis set group =>   2
Atom  51C    basis set group =>   2
Atom  52H    basis set group =>   3
Atom  53C    basis set group =>   2
Atom  54C    basis set group =>   2
Atom  55H    basis set group =>   3
Atom  56H    basis set group =>   3
Atom  57C    basis set group =>   2
Atom  58H    basis set group =>   3
Atom  59H    basis set group =>   3
Atom  60N    basis set group =>   4
Atom  61C    basis set group =>   2
Atom  62C    basis set group =>   2
Atom  63C    basis set group =>   2
Atom  64H    basis set group =>   3
Atom  65H    basis set group =>   3
Atom  66H    basis set group =>   3
Atom  67C    basis set group =>   2
Atom  68H    basis set group =>   3
Atom  69H    basis set group =>   3
Atom  70H    basis set group =>   3
Atom  71C    basis set group =>   2
Atom  72H    basis set group =>   3
Atom  73H    basis set group =>   3
Atom  74H    basis set group =>   3
Atom  75C    basis set group =>   2
Atom  76H    basis set group =>   3
Atom  77H    basis set group =>   3
Atom  78H    basis set group =>   3
Atom  79C    basis set group =>   2
Atom  80H    basis set group =>   3
Atom  81H    basis set group =>   3
Atom  82H    basis set group =>   3
Atom  83C    basis set group =>   2
Atom  84H    basis set group =>   3
Atom  85H    basis set group =>   3
Atom  86H    basis set group =>   3
-------------------------
ECP PARAMETER INFORMATION
-------------------------

 Group 1, Type Au ECP Def2-ECP (replacing 60 core electrons, lmax=3)

Atom   0Au   ECP group =>   1



           ************************************************************
           *        Program running with 8 parallel MPI-processes     *
           *              working on a common directory               *
           ************************************************************
------------------------------------------------------------------------------
                           ORCA GTO INTEGRAL CALCULATION
                           -- RI-GTO INTEGRALS CHOSEN --
------------------------------------------------------------------------------
------------------------------------------------------------------------------
                   ___                                                        
                  /   \      - P O W E R E D   B Y -                         
                 /     \                                                     
                 |  |  |   _    _      __       _____    __    __             
                 |  |  |  | |  | |    /  \     |  _  \  |  |  /  |          
                  \  \/   | |  | |   /    \    | | | |  |  | /  /          
                 / \  \   | |__| |  /  /\  \   | |_| |  |  |/  /          
                |  |  |   |  __  | /  /__\  \  |    /   |      \           
                |  |  |   | |  | | |   __   |  |    \   |  |\   \          
                \     /   | |  | | |  |  |  |  | |\  \  |  | \   \       
                 \___/    |_|  |_| |__|  |__|  |_| \__\ |__|  \__/        
                                                                              
                      - O R C A' S   B I G   F R I E N D -                    
                                      &                                       
                       - I N T E G R A L  F E E D E R -                       
                                                                              
 v1 FN, 2020, v2 2021                                                         
------------------------------------------------------------------------------


Reading SHARK input file Au-alkyne_2-full_SCS-PBE-QIDH_def2SVP.SHARKINP.tmp ... ok
----------------------
SHARK INTEGRAL PACKAGE
----------------------

Number of atoms                             ...     87
Number of basis functions                   ...    885
Number of shells                            ...    411
Maximum angular momentum                    ...      3
Integral batch strategy                     ... SHARK/LIBINT Hybrid
RI-J (if used) integral strategy            ... SPLIT-RIJ (Revised 2003 algorithm where possible)
Printlevel                                  ...      1
Contraction scheme used                     ... SEGMENTED contraction
Coulomb Range Separation                    ... NOT USED
Exchange Range Separation                   ... NOT USED
Finite Nucleus Model                        ... NOT USED
Auxiliary Coulomb fitting basis             ... AVAILABLE
   # of basis functions in Aux-J            ...   2821
   # of shells in Aux-J                     ...    923
   Maximum angular momentum in Aux-J        ...      4
Auxiliary J/K fitting basis                 ... NOT available
Auxiliary Correlation fitting basis         ... AVAILABLE
   # of basis functions in Aux-C            ...   2942
   # of shells in Aux-C                     ...   1018
   Maximum angular momentum in Aux-C        ...      5
Auxiliary 'external' fitting basis          ... NOT available
Integral threshold                          ...     2.500000e-11
Primitive cut-off                           ...     2.500000e-12
Primitive pair pre-selection threshold      ...     2.500000e-12

Calculating pre-screening integrals         ... done (  0.1 sec) Dimension = 411
Organizing shell pair data                  ... done (  0.1 sec)
Shell pair information
Total number of shell pairs                 ...     84666
Shell pairs after pre-screening             ...     33803
Total number of primitive shell pairs       ...    303772
Primitive shell pairs kept                  ...     74319
          la=0 lb=0:  10434 shell pairs
          la=1 lb=0:  12583 shell pairs
          la=1 lb=1:   3897 shell pairs
          la=2 lb=0:   3946 shell pairs
          la=2 lb=1:   2403 shell pairs
          la=2 lb=2:    373 shell pairs
          la=3 lb=0:     91 shell pairs
          la=3 lb=1:     52 shell pairs
          la=3 lb=2:     23 shell pairs
          la=3 lb=3:      1 shell pairs

Calculating one electron integrals          ... done (  0.1 sec)
Calculating ECP integrals                   ... done (  0.6 sec)
Calculating RI/J V-Matrix + Cholesky decomp.... done (  0.4 sec)
Calculating RI/C V-Matrix + Cholesky decomp.... done (  0.4 sec)
Calculating Nuclear repulsion               ... done (  0.0 sec) ENN=   5371.622718108058 Eh

SHARK setup successfully completed in   2.0 seconds

Maximum memory used throughout the entire GTOINT-calculation: 74.9 MB


           ************************************************************
           *        Program running with 8 parallel MPI-processes     *
           *              working on a common directory               *
           ************************************************************
-------------------------------------------------------------------------------
                                 ORCA SCF
-------------------------------------------------------------------------------

------------
SCF SETTINGS
------------
Hamiltonian:
 Density Functional     Method          .... DFT(GTOs)
 Exchange Functional    Exchange        .... PBE
   PBE kappa parameter   XKappa         ....  0.804000
   PBE mue parameter    XMuePBE         ....  0.219520
 Correlation Functional Correlation     .... PBE
   PBE beta parameter  CBetaPBE         ....  0.066725
 LDA part of GGA corr.  LDAOpt          .... PW91-LDA
 Gradients option       PostSCFGGA      .... off
 Hybrid DFT is turned on
   Fraction HF Exchange ScalHFX         ....  0.690000
   Scaling of DF-GGA-X  ScalDFX         ....  0.310000
   Scaling of DF-GGA-C  ScalDFC         ....  0.670000
   Scaling of DF-LDA-C  ScalLDAC        ....  0.670000
   Perturbative correction              ....  0.330000
   Density functional embedding theory  .... OFF
 RI-approximation to the Coulomb term is turned on
   Number of AuxJ basis functions       .... 2821
   RIJ-COSX (HFX calculated with COS-X)).... on


General Settings:
 Integral files         IntName         .... Au-alkyne_2-full_SCS-PBE-QIDH_def2SVP
 Hartree-Fock type      HFTyp           .... RHF
 Total Charge           Charge          ....    0
 Multiplicity           Mult            ....    1
 Number of Electrons    NEL             ....  342
 Basis Dimension        Dim             ....  885
 Nuclear Repulsion      ENuc            ....   5371.6227181081 Eh

Convergence Acceleration:
 DIIS                   CNVDIIS         .... on
   Start iteration      DIISMaxIt       ....    12
   Startup error        DIISStart       ....  0.200000
   # of expansion vecs  DIISMaxEq       ....     5
   Bias factor          DIISBfac        ....   1.050
   Max. coefficient     DIISMaxC        ....  10.000
 Trust-Rad. Augm. Hess. CNVTRAH         .... auto
   Auto Start mean grad. ratio tolernc. ....  1.125000
   Auto Start start iteration           ....    20
   Auto Start num. interpolation iter.  ....    10
   Max. Number of Micro iterations      ....    16
   Max. Number of Macro iterations      .... Maxiter - #DIIS iter
   Number of Davidson start vectors     ....     2
   Converg. threshold I  (grad. norm)   ....   1.000e-05
   Converg. threshold II (energy diff.) ....   1.000e-08
   Grad. Scal. Fac. for Micro threshold ....   0.100
   Minimum threshold for Micro iter.    ....   0.010
   NR start threshold (gradient norm)   ....   0.001
   Initial trust radius                 ....   0.400
   Minimum AH scaling param. (alpha)    ....   1.000
   Maximum AH scaling param. (alpha)    .... 1000.000
   Orbital update algorithm             .... Taylor
   White noise on init. David. guess    .... on
   Maximum white noise                  ....   0.010
   Quad. conv. algorithm                .... NR
 SOSCF                  CNVSOSCF        .... off
 Level Shifting         CNVShift        .... on
   Level shift para.    LevelShift      ....    0.2500
   Turn off err/grad.   ShiftErr        ....    0.0010
 Zerner damping         CNVZerner       .... off
 Static damping         CNVDamp         .... on
   Fraction old density DampFac         ....    0.7000
   Max. Damping (<1)    DampMax         ....    0.9800
   Min. Damping (>=0)   DampMin         ....    0.0000
   Turn off err/grad.   DampErr         ....    0.1000
 Fernandez-Rico         CNVRico         .... off

SCF Procedure:
 Maximum # iterations   MaxIter         ....   125
 SCF integral mode      SCFMode         .... Direct
   Integral package                     .... SHARK and LIBINT hybrid scheme
 Reset frequency        DirectResetFreq ....    20
 Integral Threshold     Thresh          ....  2.500e-11 Eh
 Primitive CutOff       TCut            ....  2.500e-12 Eh

Convergence Tolerance:
 Convergence Check Mode ConvCheckMode   .... Total+1el-Energy
 Convergence forced     ConvForced      .... 1
 Energy Change          TolE            ....  1.000e-08 Eh
 1-El. energy change                    ....  1.000e-05 Eh
 DIIS Error             TolErr          ....  5.000e-07


Diagonalization of the overlap matrix:
Smallest eigenvalue                        ... 2.083e-04
Time for diagonalization                   ...    0.141 sec
Threshold for overlap eigenvalues          ... 1.000e-08
Number of eigenvalues below threshold      ... 0
Time for construction of square roots      ...    0.075 sec
Total time needed                          ...    0.219 sec

Time for model grid setup =    0.964 sec

------------------------------
INITIAL GUESS: MODEL POTENTIAL
------------------------------
Loading Hartree-Fock densities                     ... done
  calling /project/ligandum/orca_504_openmpi411/orca Au-alkyne_2-full_SCS-PBE-QIDH_def2SVP_atom79.inp > Au-alkyne_2-full_SCS-PBE-QIDH_def2SVP_atom79.out in order to generate an atomic fitting density for atom 0 (Au with ECP) on-the-fly... 
    atom 0 (Au), assumed electronic state with S=2: 1s2 2s2 2p6 3s2 3p6 4s2 3d10 4p6 5s2 4d10 5p6 6s1 4f14 5d10           ... done
Calculating cut-offs                               ... done
Initializing the effective Hamiltonian             ... done
Setting up the integral package (SHARK)            ... done
Starting the Coulomb interaction                   ... done (   0.6 sec)
Reading the grid                                   ... done
Mapping shells                                     ... done
Starting the XC term evaluation                    ... done (   0.2 sec)
  promolecular density results
     # of electrons  =    401.990707998
     EX              =   -620.597022057
     EC              =     -6.171710487
     EX+EC           =   -626.768732544
Transforming the Hamiltonian                       ... done (   0.1 sec)
Diagonalizing the Hamiltonian                      ... done (   0.1 sec)
Back transforming the eigenvectors                 ... done (   0.0 sec)
Now organizing SCF variables                       ... done
                      ------------------
                      INITIAL GUESS DONE (   3.5 sec)
                      ------------------
-------------------
DFT GRID GENERATION
-------------------

General Integration Accuracy     IntAcc      ... 4.388
Radial Grid Type                 RadialGrid  ... OptM3 with GC (2021)
Angular Grid (max. ang.)         AngularGrid ... 4 (Lebedev-302)
Angular grid pruning method      GridPruning ... 4 (adaptive)
Weight generation scheme         WeightScheme... Becke
Basis function cutoff            BFCut       ... 1.0000e-11
Integration weight cutoff        WCut        ... 1.0000e-14
Angular grids for H and He will be reduced by one unit
Partially contracted basis set               ... off
Rotationally invariant grid construction     ... off

Total number of grid points                  ...   413665
Total number of batches                      ...     6506
Average number of points per batch           ...       63
Average number of grid points per atom       ...     4755
Time for grid setup =    3.638 sec

--------------------
COSX GRID GENERATION
--------------------

GRIDX 1
-------
General Integration Accuracy     IntAcc      ... 3.816
Radial Grid Type                 RadialGrid  ... OptM3 with GC (2021)
Angular Grid (max. ang.)         AngularGrid ... 1 (Lebedev-50)
Angular grid pruning method      GridPruning ... 4 (adaptive)
Weight generation scheme         WeightScheme... Becke
Basis function cutoff            BFCut       ... 1.0000e-11
Integration weight cutoff        WCut        ... 1.0000e-14
Angular grids for H and He will be reduced by one unit
Partially contracted basis set               ... on
Rotationally invariant grid construction     ... off

Total number of grid points                  ...    52245
Total number of batches                      ...      858
Average number of points per batch           ...       60
Average number of grid points per atom       ...      601
UseSFitting                                  ... on

GRIDX 2
-------
General Integration Accuracy     IntAcc      ... 4.020
Radial Grid Type                 RadialGrid  ... OptM3 with GC (2021)
Angular Grid (max. ang.)         AngularGrid ... 2 (Lebedev-110)
Angular grid pruning method      GridPruning ... 4 (adaptive)
Weight generation scheme         WeightScheme... Becke
Basis function cutoff            BFCut       ... 1.0000e-11
Integration weight cutoff        WCut        ... 1.0000e-14
Angular grids for H and He will be reduced by one unit
Partially contracted basis set               ... on
Rotationally invariant grid construction     ... off

Total number of grid points                  ...   113118
Total number of batches                      ...     1811
Average number of points per batch           ...       62
Average number of grid points per atom       ...     1300
UseSFitting                                  ... on

GRIDX 3
-------
General Integration Accuracy     IntAcc      ... 4.338
Radial Grid Type                 RadialGrid  ... OptM3 with GC (2021)
Angular Grid (max. ang.)         AngularGrid ... 3 (Lebedev-194)
Angular grid pruning method      GridPruning ... 4 (adaptive)
Weight generation scheme         WeightScheme... Becke
Basis function cutoff            BFCut       ... 1.0000e-11
Integration weight cutoff        WCut        ... 1.0000e-14
Angular grids for H and He will be reduced by one unit
Partially contracted basis set               ... on
Rotationally invariant grid construction     ... off

Total number of grid points                  ...   245289
Total number of batches                      ...     3876
Average number of points per batch           ...       63
Average number of grid points per atom       ...     2819
UseSFitting                                  ... on

Time for X-Grid setup             =    3.679 sec


--------------------
CPCM SOLVATION MODEL
--------------------
CPCM parameters:
  Epsilon                                         ...      35.6880
  Refrac                                          ...       1.3442
  Rsolv                                           ...       1.3000
  Surface type                                    ... GAUSSIAN VDW
  Epsilon function type                           ...         CPCM
Solvent:                                     ... ACETONITRILE
SMD-CDS solvent descriptors:
  Soln                                       ...    1.3442
  Soln25                                     ...    1.3416
  Sola                                       ...    0.0700
  Solb                                       ...    0.3200
  Solg                                       ...   41.2500
  Solc                                       ...    0.0000
  Solh                                       ...    0.0000
Radii:
 Radius for Au used is    4.1007 Bohr (=   2.1700 Ang.)
 Radius for C  used is    3.4960 Bohr (=   1.8500 Ang.)
 Radius for H  used is    2.2677 Bohr (=   1.2000 Ang.)
 Radius for N  used is    3.5716 Bohr (=   1.8900 Ang.)
Calculating surface                               ...        done! (  0.0s)
GEPOL surface points                              ...         4963
GEPOL Volume                                      ...    4500.8468
GEPOL Surface-area                                ...    2418.3788
Calculating surface distance matrix               ...        done! (  0.1s)
Performing Cholesky decomposition & store         ...        done! (  0.9s)
Overall time for CPCM initialization              ...                 1.0s
--------------
SCF ITERATIONS
--------------
ITER       Energy         Delta-E        Max-DP      RMS-DP      [F,P]     Damp
               ***  Starting incremental Fock matrix formation  ***
  0  -1975.3208396380   0.000000000000 0.16829026  0.00140097  0.5004866 0.7000
  1  -1975.7990823761  -0.478242738066 0.12918135  0.00106023  0.3669141 0.7000
  2  -1976.0594265000  -0.260344123973 0.12426894  0.00071108  0.2664762 0.7000
                               ***Turning on DIIS***
  3  -1976.2171243809  -0.157697880870 0.10356303  0.00048726  0.1909675 0.7000
  4  -1976.3236930246  -0.106568643721 0.08424759  0.00035006  0.1353326 0.7000
  5  -1976.3982074265  -0.074514401912 0.19506945  0.00084226  0.0944648 0.0000
  6  -1976.5733545385  -0.175147112011 0.00951803  0.00005570  0.0053503 0.0000
  7  -1976.5736820600  -0.000327521476 0.00759890  0.00002740  0.0034575 0.0000
  8  -1976.5737646363  -0.000082576306 0.00194321  0.00001262  0.0013854 0.0000
  9  -1976.5737894824  -0.000024846051 0.00212487  0.00000860  0.0006807 0.0000
               *** Restarting incremental Fock matrix formation ***
                                   *** Resetting DIIS ***
 10  -1976.5756454852  -0.001856002809 0.00204699  0.00002904  0.0001986 0.0000
 11  -1976.5756498586  -0.000004373453 0.00035445  0.00000369  0.0001505 0.0000
 12  -1976.5756501915  -0.000000332835 0.00018464  0.00000175  0.0001139 0.0000
 13  -1976.5756503846  -0.000000193176 0.00006430  0.00000043  0.0000334 0.0000
 14  -1976.5756504146  -0.000000029985 0.00002342  0.00000023  0.0000252 0.0000
 15  -1976.5756504453  -0.000000030692 0.00001490  0.00000011  0.0000113 0.0000
 16  -1976.5756504718  -0.000000026454 0.00000452  0.00000005  0.0000057 0.0000
                 **** Energy Check signals convergence ****

               *****************************************************
               *                     SUCCESS                       *
               *           SCF CONVERGED AFTER  17 CYCLES          *
               *****************************************************

Old exchange energy                            =   -187.564549379 Eh
New exchange energy                            =   -187.564571463 Eh
Exchange energy change after final integration =     -0.000022084 Eh
Total energy after final integration           =  -1976.575672549 Eh
Final COS-X integration done in                =    31.004 sec

SMD CDS free energy correction energy :                -9.52261     Kcal/mol
Total Energy after SMD CDS correction =             -1976.590847789 Eh

----------------
TOTAL SCF ENERGY
----------------

Total Energy       :        -1976.59084779 Eh          -53785.77138 eV

Components:
Nuclear Repulsion  :         5371.62271811 Eh          146169.28526 eV
Electronic Energy  :        -7348.21356590 Eh         -199955.05665 eV
One Electron Energy:       -13424.43634163 Eh         -365297.48422 eV
Two Electron Energy:         6076.22277573 Eh          165342.42757 eV
Max COSX asymmetry :            0.00004640 Eh               0.00126 eV
CPCM Dielectric    :           -0.05057395 Eh              -1.37619 eV
SMD CDS (Gcds)     :           -0.01517524 Eh              -0.41294 eV

Virial components:
Potential Energy   :        -3845.97050195 Eh         -104654.17787 eV
Kinetic Energy     :         1869.37965416 Eh           50868.40649 eV
Virial Ratio       :            2.05735121


DFT components:
N(Alpha)           :      170.999792492727 electrons
N(Beta)            :      170.999792492727 electrons
N(Total)           :      341.999584985455 electrons
E(X)               :      -83.960940961389 Eh       
E(C)               :       -7.827009415404 Eh       
E(XC)              :      -91.787950376793 Eh       
DFET-embed. en.    :        0.000000000000 Eh       
CPCM Solvation Model Properties:
Surface-charge          :           -0.08750269
Charge-correction       :           -0.00032316 Eh              -0.00879 eV
Free-energy (cav+disp)  :           -0.01517524 Eh              -0.41294 eV

---------------
SCF CONVERGENCE
---------------

  Last Energy change         ...    6.5550e-09  Tolerance :   1.0000e-08
  Last MAX-Density change    ...    0.0000e+00  Tolerance :   1.0000e-07
  Last RMS-Density change    ...    0.0000e+00  Tolerance :   5.0000e-09
  Last DIIS Error            ...    1.5186e-06  Tolerance :   5.0000e-07

             **** THE GBW FILE WAS UPDATED (Au-alkyne_2-full_SCS-PBE-QIDH_def2SVP.gbw) ****
             **** DENSITY Au-alkyne_2-full_SCS-PBE-QIDH_def2SVP.scfp WAS UPDATED ****
             **** ENERGY FILE WAS UPDATED (Au-alkyne_2-full_SCS-PBE-QIDH_def2SVP.en.tmp) ****
             **** THE GBW FILE WAS UPDATED (Au-alkyne_2-full_SCS-PBE-QIDH_def2SVP.gbw) ****
             **** DENSITY Au-alkyne_2-full_SCS-PBE-QIDH_def2SVP.scfp WAS UPDATED ****
----------------
ORBITAL ENERGIES
----------------

  NO   OCC          E(Eh)            E(eV) 
   0   2.0000     -15.158652      -412.4879 
   1   2.0000     -15.139657      -411.9710 
   2   2.0000     -10.910360      -296.8860 
   3   2.0000     -10.910345      -296.8856 
   4   2.0000     -10.886461      -296.2357 
   5   2.0000     -10.871457      -295.8274 
   6   2.0000     -10.871436      -295.8268 
   7   2.0000     -10.868054      -295.7348 
   8   2.0000     -10.860866      -295.5392 
   9   2.0000     -10.850313      -295.2520 
  10   2.0000     -10.850304      -295.2518 
  11   2.0000     -10.849181      -295.2212 
  12   2.0000     -10.849165      -295.2208 
  13   2.0000     -10.843349      -295.0625 
  14   2.0000     -10.843330      -295.0620 
  15   2.0000     -10.841355      -295.0083 
  16   2.0000     -10.841314      -295.0072 
  17   2.0000     -10.840757      -294.9920 
  18   2.0000     -10.840754      -294.9919 
  19   2.0000     -10.839302      -294.9524 
  20   2.0000     -10.839287      -294.9520 
  21   2.0000     -10.836317      -294.8712 
  22   2.0000     -10.836315      -294.8711 
  23   2.0000     -10.832608      -294.7703 
  24   2.0000     -10.832364      -294.7636 
  25   2.0000     -10.832363      -294.7636 
  26   2.0000     -10.831871      -294.7502 
  27   2.0000     -10.831359      -294.7363 
  28   2.0000     -10.831261      -294.7336 
  29   2.0000     -10.831258      -294.7335 
  30   2.0000     -10.831200      -294.7319 
  31   2.0000     -10.831185      -294.7315 
  32   2.0000     -10.830648      -294.7169 
  33   2.0000     -10.830640      -294.7167 
  34   2.0000     -10.829832      -294.6947 
  35   2.0000     -10.829804      -294.6940 
  36   2.0000     -10.829032      -294.6729 
  37   2.0000     -10.829022      -294.6727 
  38   2.0000     -10.828165      -294.6494 
  39   2.0000     -10.828161      -294.6492 
  40   2.0000     -10.824176      -294.5408 
  41   2.0000     -10.804320      -294.0005 
  42   2.0000     -10.804312      -294.0003 
  43   2.0000     -10.804257      -293.9988 
  44   2.0000     -10.804251      -293.9986 
  45   2.0000     -10.803066      -293.9664 
  46   2.0000     -10.803063      -293.9663 
  47   2.0000      -4.616442      -125.6198 
  48   2.0000      -2.706366       -73.6440 
  49   2.0000      -2.697790       -73.4106 
  50   2.0000      -2.681528       -72.9681 
  51   2.0000      -1.201986       -32.7077 
  52   2.0000      -1.197569       -32.5875 
  53   2.0000      -1.068534       -29.0763 
  54   2.0000      -1.058077       -28.7918 
  55   2.0000      -1.045049       -28.4372 
  56   2.0000      -1.044524       -28.4229 
  57   2.0000      -1.041291       -28.3350 
  58   2.0000      -1.004303       -27.3285 
  59   2.0000      -1.000609       -27.2279 
  60   2.0000      -0.993517       -27.0350 
  61   2.0000      -0.990783       -26.9606 
  62   2.0000      -0.961600       -26.1665 
  63   2.0000      -0.943755       -25.6809 
  64   2.0000      -0.930627       -25.3237 
  65   2.0000      -0.928985       -25.2790 
  66   2.0000      -0.913672       -24.8623 
  67   2.0000      -0.913650       -24.8617 
  68   2.0000      -0.910063       -24.7641 
  69   2.0000      -0.902014       -24.5451 
  70   2.0000      -0.896655       -24.3992 
  71   2.0000      -0.882626       -24.0175 
  72   2.0000      -0.869428       -23.6583 
  73   2.0000      -0.835777       -22.7427 
  74   2.0000      -0.830698       -22.6044 
  75   2.0000      -0.830697       -22.6044 
  76   2.0000      -0.830395       -22.5962 
  77   2.0000      -0.821803       -22.3624 
  78   2.0000      -0.807741       -21.9798 
  79   2.0000      -0.801359       -21.8061 
  80   2.0000      -0.772699       -21.0262 
  81   2.0000      -0.767573       -20.8867 
  82   2.0000      -0.761355       -20.7175 
  83   2.0000      -0.751261       -20.4428 
  84   2.0000      -0.740932       -20.1618 
  85   2.0000      -0.732501       -19.9324 
  86   2.0000      -0.727560       -19.7979 
  87   2.0000      -0.722872       -19.6704 
  88   2.0000      -0.712659       -19.3924 
  89   2.0000      -0.687009       -18.6945 
  90   2.0000      -0.683481       -18.5985 
  91   2.0000      -0.670693       -18.2505 
  92   2.0000      -0.666107       -18.1257 
  93   2.0000      -0.659845       -17.9553 
  94   2.0000      -0.642718       -17.4892 
  95   2.0000      -0.640265       -17.4225 
  96   2.0000      -0.633809       -17.2468 
  97   2.0000      -0.630237       -17.1496 
  98   2.0000      -0.606582       -16.5059 
  99   2.0000      -0.603367       -16.4185 
 100   2.0000      -0.599636       -16.3169 
 101   2.0000      -0.597434       -16.2570 
 102   2.0000      -0.593217       -16.1423 
 103   2.0000      -0.578727       -15.7480 
 104   2.0000      -0.576349       -15.6833 
 105   2.0000      -0.574544       -15.6341 
 106   2.0000      -0.569416       -15.4946 
 107   2.0000      -0.565041       -15.3755 
 108   2.0000      -0.564532       -15.3617 
 109   2.0000      -0.561246       -15.2723 
 110   2.0000      -0.551385       -15.0039 
 111   2.0000      -0.550000       -14.9663 
 112   2.0000      -0.546803       -14.8793 
 113   2.0000      -0.546520       -14.8716 
 114   2.0000      -0.546261       -14.8645 
 115   2.0000      -0.542538       -14.7632 
 116   2.0000      -0.541095       -14.7239 
 117   2.0000      -0.536274       -14.5927 
 118   2.0000      -0.535050       -14.5594 
 119   2.0000      -0.533651       -14.5214 
 120   2.0000      -0.527792       -14.3620 
 121   2.0000      -0.521652       -14.1949 
 122   2.0000      -0.521230       -14.1834 
 123   2.0000      -0.520928       -14.1752 
 124   2.0000      -0.519395       -14.1335 
 125   2.0000      -0.512458       -13.9447 
 126   2.0000      -0.505838       -13.7645 
 127   2.0000      -0.502000       -13.6601 
 128   2.0000      -0.496084       -13.4991 
 129   2.0000      -0.496002       -13.4969 
 130   2.0000      -0.488979       -13.3058 
 131   2.0000      -0.488164       -13.2836 
 132   2.0000      -0.483908       -13.1678 
 133   2.0000      -0.482418       -13.1273 
 134   2.0000      -0.476133       -12.9562 
 135   2.0000      -0.468942       -12.7606 
 136   2.0000      -0.468922       -12.7600 
 137   2.0000      -0.467851       -12.7309 
 138   2.0000      -0.465114       -12.6564 
 139   2.0000      -0.459853       -12.5132 
 140   2.0000      -0.455893       -12.4055 
 141   2.0000      -0.454797       -12.3756 
 142   2.0000      -0.454589       -12.3700 
 143   2.0000      -0.453929       -12.3520 
 144   2.0000      -0.447631       -12.1807 
 145   2.0000      -0.446989       -12.1632 
 146   2.0000      -0.445703       -12.1282 
 147   2.0000      -0.433578       -11.7983 
 148   2.0000      -0.431629       -11.7452 
 149   2.0000      -0.425823       -11.5872 
 150   2.0000      -0.416975       -11.3465 
 151   2.0000      -0.416218       -11.3259 
 152   2.0000      -0.415991       -11.3197 
 153   2.0000      -0.412399       -11.2220 
 154   2.0000      -0.408063       -11.1039 
 155   2.0000      -0.404057       -10.9949 
 156   2.0000      -0.393291       -10.7020 
 157   2.0000      -0.390185       -10.6175 
 158   2.0000      -0.383470       -10.4348 
 159   2.0000      -0.359113        -9.7720 
 160   2.0000      -0.354240        -9.6394 
 161   2.0000      -0.333518        -9.0755 
 162   2.0000      -0.329630        -8.9697 
 163   2.0000      -0.323870        -8.8129 
 164   2.0000      -0.321754        -8.7554 
 165   2.0000      -0.321389        -8.7454 
 166   2.0000      -0.317265        -8.6332 
 167   2.0000      -0.298162        -8.1134 
 168   2.0000      -0.286566        -7.7979 
 169   2.0000      -0.273473        -7.4416 
[...]
   166a -> 176a  :     0.104596 
   166a -> 182a  :     0.012748 
   168a -> 171a  :     0.026831 
   168a -> 173a  :     0.062636 
   168a -> 174a  :     0.013883 
   168a -> 176a  :     0.091040 
   170a -> 175a  :     0.025447 

STATE 36:  E=   0.234809 au      6.389 eV    51534.7 cm**-1 <S**2> =   0.000000
   112a -> 175a  :     0.011861 
   134a -> 175a  :     0.089488 
   141a -> 175a  :     0.030421 
   142a -> 175a  :     0.011677 
   147a -> 175a  :     0.013744 
   149a -> 175a  :     0.473549 
   156a -> 171a  :     0.061918 
   157a -> 172a  :     0.013435 
   158a -> 171a  :     0.013642 
   160a -> 171a  :     0.061993 
   161a -> 177a  :     0.022825 
   162a -> 171a  :     0.015073 
   162a -> 176a  :     0.012811 
   166a -> 172a  :     0.025019 
   166a -> 178a  :     0.014074 

STATE 37:  E=   0.226246 au      6.156 eV    49655.2 cm**-1 <S**2> =   0.000000
   158a -> 171a  :     0.011902 
   159a -> 174a  :     0.013896 
   160a -> 171a  :     0.066191 
   160a -> 173a  :     0.010554 
   161a -> 177a  :     0.155657 
   163a -> 176a  :     0.029043 
   164a -> 171a  :     0.011064 
   164a -> 176a  :     0.032152 
   167a -> 171a  :     0.127579 
   167a -> 173a  :     0.058453 
   167a -> 176a  :     0.010378 
   167a -> 182a  :     0.020337 
   167a -> 189a  :     0.054059 
   167a -> 191a  :     0.045774 
   169a -> 183a  :     0.018343 
   170a -> 182a  :     0.032477 
   170a -> 189a  :     0.016083 
   170a -> 191a  :     0.017305 

STATE 38:  E=   0.225400 au      6.133 eV    49469.5 cm**-1 <S**2> =   0.000000
   157a -> 172a  :     0.024937 
   158a -> 171a  :     0.021757 
   158a -> 173a  :     0.013220 
   160a -> 171a  :     0.116349 
   160a -> 173a  :     0.016532 
   160a -> 176a  :     0.067459 
   161a -> 177a  :     0.026228 
   162a -> 176a  :     0.020801 
   163a -> 171a  :     0.010442 
   163a -> 173a  :     0.015508 
   163a -> 176a  :     0.101770 
   163a -> 180a  :     0.022081 
   164a -> 171a  :     0.042320 
   164a -> 173a  :     0.017026 
   164a -> 176a  :     0.017979 
   164a -> 182a  :     0.015905 
   166a -> 172a  :     0.036833 
   166a -> 178a  :     0.043960 
   167a -> 171a  :     0.010875 
   167a -> 173a  :     0.011646 
   168a -> 178a  :     0.097687 
   168a -> 185a  :     0.018475 

STATE 39:  E=   0.230321 au      6.267 eV    50549.5 cm**-1 <S**2> =   0.000000
   149a -> 175a  :     0.035312 
   158a -> 173a  :     0.027166 
   160a -> 171a  :     0.036921 
   161a -> 177a  :     0.330970 
   162a -> 171a  :     0.015339 
   162a -> 176a  :     0.049614 
   164a -> 176a  :     0.060108 
   166a -> 172a  :     0.051351 
   167a -> 171a  :     0.045036 
   167a -> 174a  :     0.011645 
   167a -> 176a  :     0.014621 
   168a -> 178a  :     0.085151 

STATE 40:  E=   0.202541 au      5.511 eV    44452.7 cm**-1 <S**2> =   0.000000
   169a -> 172a  :     0.998826 


-------------------------
TD-DFT-EXCITATION SPECTRA
-------------------------

Center of mass = ( -0.7146, -0.0002, -0.0012)
Calculating the Dipole integrals                  ... done
Transforming integrals                            ... done
Calculating the Linear Momentum integrals         ... done
Transforming integrals                            ... done
Calculating angular momentum integrals            ... done
Transforming integrals                            ... done

-----------------------------------------------------------------------------
         ABSORPTION SPECTRUM VIA TRANSITION ELECTRIC DIPOLE MOMENTS
-----------------------------------------------------------------------------
State   Energy    Wavelength  fosc         T2        TX        TY        TZ  
        (cm-1)      (nm)                 (au**2)    (au)      (au)      (au) 
-----------------------------------------------------------------------------
   1   29058.5    344.1   0.110747484   1.25469   0.00015  -1.12011   0.00585
   2   32737.7    305.5   0.886029604   8.90997  -2.98496  -0.00121  -0.00182
   3   31664.7    315.8   0.047192284   0.49065   0.70045   0.00264   0.00375
   4   36687.7    272.6   0.337364974   3.02730   1.73987  -0.00069  -0.01283
   5   33729.2    296.5   0.259088623   2.52882   1.59017   0.01356   0.00161
   6   37525.0    266.5   0.318120504   2.79092   0.00550  -1.66943  -0.06233
   7   34712.7    288.1   0.365964921   3.47077   0.00718  -1.86299  -0.00180
   8   35654.3    280.5   0.000432650   0.00399  -0.06302   0.00381   0.00301
   9   37713.5    265.2   0.190003427   1.65859   0.00923  -1.28696  -0.04735
  10   36100.4    277.0   0.006664672   0.06078   0.00214  -0.19599   0.14953
  11   38853.0    257.4   0.009018496   0.07642   0.27636   0.00631   0.00198
  12   39380.7    253.9   0.000363910   0.00304   0.05378   0.01226  -0.00042
  13   40527.0    246.7   0.002094346   0.01701   0.12976   0.01308   0.00199
  14   39821.4    251.1   0.186815164   1.54444   0.00043  -1.23976  -0.08626
  15   36803.3    271.7   0.001940578   0.01736  -0.00039   0.08786  -0.09818
  16   39645.7    252.2   0.011071363   0.09193   0.30320  -0.00177  -0.00132
  17   41918.1    238.6   0.082441242   0.64747  -0.80461   0.00830   0.00139
  18   42026.4    237.9   0.017358565   0.13598   0.00857  -0.36647  -0.04001
  19   43374.4    230.6   0.337040463   2.55814  -0.00518  -1.59847   0.05494
  20   40751.4    245.4   0.299446659   2.41909   0.00010  -1.54851  -0.14568
  21   42738.5    234.0   0.996720567   7.67767   0.00159   2.77083   0.01346
  22   45019.0    222.1   0.007023432   0.05136   0.22661   0.00305   0.00079
  23   42810.7    233.6   0.790038649   6.07535  -0.00424   2.46119   0.13363
  24   39787.2    251.3   0.060199697   0.49811   0.00126   0.70391   0.05124
  25   44782.2    223.3   0.538352434   3.95764   1.98934  -0.00847   0.01031
  26   45183.4    221.3   0.020761852   0.15127   0.00512   0.38122  -0.07693
  27   44318.1    225.6   0.227481587   1.68982   0.01594   1.22823  -0.42545
  28   46008.7    217.4   0.002509263   0.01795   0.13367   0.00864  -0.00336
  29   44761.8    223.4   0.154079454   1.13322   0.00503  -0.83021   0.66629
  30   44259.1    225.9   0.003295594   0.02451   0.15652  -0.00367  -0.00093
  31   46683.4    214.2   0.166044997   1.17095   0.90889   0.58559   0.04431
  32   46749.6    213.9   0.235209192   1.65635   1.21095  -0.43385  -0.04138
  33   49332.4    202.7   0.000077213   0.00052  -0.02194  -0.00322   0.00487
  34   47160.0    212.0   0.004839507   0.03378   0.18331   0.01339  -0.00114
  35   47727.3    209.5   0.262502593   1.81068  -0.00235   1.34554  -0.01440
  36   51534.7    194.0   0.276254276   1.76476  -1.32843   0.00166   0.00497
  37   49655.2    201.4   0.146446255   0.97093  -0.98534   0.00633   0.00104
  38   49469.5    202.1   0.348552822   2.31957  -1.52298   0.00374   0.00970
  39   50549.5    197.8   0.997258745   6.49481   2.54847   0.00430  -0.00905
  40   44452.7    225.0   0.000228753   0.00169   0.04116  -0.00031  -0.00021

-----------------------------------------------------------------------------
         ABSORPTION SPECTRUM VIA TRANSITION VELOCITY DIPOLE MOMENTS
-----------------------------------------------------------------------------
State   Energy    Wavelength   fosc        P2         PX        PY        PZ  
        (cm-1)      (nm)                 (au**2)     (au)      (au)      (au) 
-----------------------------------------------------------------------------
   1   29058.5    344.1   0.135786395   0.02697  -0.00002   0.16422  -0.00076
   2   32737.7    305.5   1.030017735   0.23046   0.48006   0.00017   0.00033
   3   31664.7    315.8   0.074937527   0.01622  -0.12734  -0.00046  -0.00069
   4   36687.7    272.6   0.357699499   0.08969  -0.29948   0.00012   0.00220
   5   33729.2    296.5   0.321707981   0.07416  -0.27231  -0.00232  -0.00027
   6   37525.0    266.5   0.326556764   0.08375  -0.00096   0.28918   0.01112
   7   34712.7    288.1   0.446605697   0.10595  -0.00128   0.32550   0.00059
   8   35654.3    280.5   0.000602502   0.00015   0.01208  -0.00072  -0.00057
   9   37713.5    265.2   0.229318321   0.05911  -0.00170   0.24288   0.01077
  10   36100.4    277.0   0.011353863   0.00280  -0.00041   0.03964  -0.03507
  11   38853.0    257.4   0.012208123   0.00324  -0.05692  -0.00126  -0.00034
  12   39380.7    253.9   0.000059091   0.00002  -0.00319  -0.00240   0.00000
  13   40527.0    246.7   0.002520353   0.00070  -0.02629  -0.00257  -0.00040
  14   39821.4    251.1   0.238756555   0.06498  -0.00010   0.25431   0.01749
  15   36803.3    271.7   0.003573336   0.00090   0.00012  -0.01708   0.02464
  16   39645.7    252.2   0.011807842   0.00320  -0.05656   0.00035   0.00022
  17   41918.1    238.6   0.090528669   0.02594   0.16104  -0.00167  -0.00017
  18   42026.4    237.9   0.021289737   0.00612  -0.00171   0.07741   0.01096
  19   43374.4    230.6   0.374784755   0.11110   0.00100   0.33292  -0.01625
  20   40751.4    245.4   0.395513420   0.11016  -0.00000   0.33051   0.03028
  21   42738.5    234.0   1.162772483   0.33964  -0.00035  -0.58278  -0.00356
  22   45019.0    222.1   0.009531898   0.00293  -0.05415  -0.00068  -0.00018
  23   42810.7    233.6   0.984492496   0.28805   0.00094  -0.53591  -0.02927
  24   39787.2    251.3   0.084442648   0.02296  -0.00032  -0.15093  -0.01353
  25   44782.2    223.3   0.657387796   0.20120  -0.44855   0.00189  -0.00234
  26   45183.4    221.3   0.024203044   0.00747  -0.00122  -0.08635   0.00405
  27   44318.1    225.6   0.285333417   0.08643  -0.00360  -0.27744   0.09715
  28   46008.7    217.4   0.003928827   0.00124  -0.03509  -0.00194   0.00069
  29   44761.8    223.4   0.193002329   0.05904  -0.00114   0.18735  -0.15474
  30   44259.1    225.9   0.004134373   0.00125  -0.03535   0.00081   0.00021
  31   46683.4    214.2   0.192979368   0.06157  -0.20793  -0.13506  -0.00961
  32   46749.6    213.9   0.271449878   0.08673  -0.27684   0.10006   0.00904
  33   49332.4    202.7   0.000189918   0.00006  -0.00789   0.00077  -0.00106
  34   47160.0    212.0   0.004946912   0.00159  -0.03981  -0.00311   0.00020
  35   47727.3    209.5   0.299643809   0.09774   0.00055  -0.31261   0.00390
  36   51534.7    194.0   0.267481699   0.09421   0.30694  -0.00040  -0.00120
  37   49655.2    201.4   0.158009780   0.05362   0.23156  -0.00153  -0.00028
  38   49469.5    202.1   0.391778606   0.13246   0.36394  -0.00087  -0.00233
  39   50549.5    197.8   1.075391107   0.37153  -0.60953  -0.00106   0.00217
  40   44452.7    225.0   0.000321550   0.00010  -0.00988   0.00007   0.00005

-------------------------------------------------------------------
                             CD SPECTRUM
-------------------------------------------------------------------
State  Energy     Wavelength     R         MX        MY        MZ   
       (cm-1)       (nm)     (1e40*cgs)   (au)      (au)      (au)  
-------------------------------------------------------------------
   1   29058.5    344.1     -5.20683   0.01309   0.02260   2.44062
   2   32737.7    305.5    -69.77642   0.04958   0.01198  -0.00104
   3   31664.7    315.8     10.30278   0.03121  -0.00412   0.00067
   4   36687.7    272.6     -1.44123  -0.00176  -0.01024   0.00035
   5   33729.2    296.5     12.13652   0.01625  -0.00656  -0.00713
   6   37525.0    266.5     20.50817  -0.00112   0.03944  -1.75413
   7   34712.7    288.1    -10.54087  -0.00405   0.01095   1.07140
   8   35654.3    280.5      0.84289  -0.02852   0.00118  -0.00466
   9   37713.5    265.2    -28.87390  -0.00012   0.00348   1.19888
  10   36100.4    277.0     29.58765  -0.00161  -0.03729   0.37084
  11   38853.0    257.4    -10.00787  -0.07673  -0.00130  -0.00795
  12   39380.7    253.9      1.53077   0.06026   0.00017  -0.01014
  13   40527.0    246.7      0.82239   0.01378  -0.00054  -0.01869
  14   39821.4    251.1     37.68652  -0.00061   0.04772  -1.61262
  15   36803.3    271.7      4.14636  -0.00003   0.00409  -0.08592
  16   39645.7    252.2     -0.47303  -0.00331  -0.00140   0.00147
  17   41918.1    238.6     55.19450  -0.14549   0.00269  -0.00914
  18   42026.4    237.9     -2.60046   0.00237  -0.03876   0.49347
  19   43374.4    230.6    -36.32236  -0.00237   0.10516   1.65696
  20   40751.4    245.4    113.88445   0.00045   0.08800  -2.59354
  21   42738.5    234.0    -53.73119  -0.00130  -0.02685  -2.94035
  22   45019.0    222.1      3.84498   0.03600  -0.00163   0.00415
  23   42810.7    233.6     61.44150   0.00327  -0.08933   2.62057
  24   39787.2    251.3    -16.51548   0.00029  -0.02675  -0.31616
  25   44782.2    223.3    -19.67069  -0.02104  -0.01422   0.00088
  26   45183.4    221.3      1.63004   0.00083  -0.03307  -0.20874
  27   44318.1    225.6     10.92083   0.00626   0.15044   0.38009
  28   46008.7    217.4      3.08712   0.04905  -0.00136  -0.00096
  29   44761.8    223.4    -106.28237  -0.00294  -0.23599  -0.63238
  30   44259.1    225.9     -5.43640  -0.07368  -0.00087   0.00269
  31   46683.4    214.2     20.15535   0.01300   0.03304   0.26147
  32   46749.6    213.9     11.40413  -0.00041  -0.03768  -0.20130
  33   49332.4    202.7     -0.72814   0.06805   0.00089  -0.01005
  34   47160.0    212.0      1.06026   0.01219  -0.00126  -0.02666
  35   47727.3    209.5     24.10434  -0.00991   0.00944  -2.66768
  36   51534.7    194.0    -20.36184   0.03251   0.00799  -0.00369
  37   49655.2    201.4     23.51373  -0.05058   0.00680  -0.00988
  38   49469.5    202.1    -82.13626   0.11440   0.01275  -0.00465
  39   50549.5    197.8     48.97300   0.04078  -0.01686  -0.00249
  40   44452.7    225.0      0.02061   0.00106  -0.00025  -0.00039

-------------------------------------------------------------------
         CD SPECTRUM VIA TRANSITION VELOCITY DIPOLE MOMENTS        
-------------------------------------------------------------------
State  Energy     Wavelength     R         MX        MY        MZ   
       (cm-1)       (nm)     (1e40*cgs)   (au)      (au)      (au)  
-------------------------------------------------------------------
   1   29058.5    344.1     -6.62018   0.01309   0.02260   2.44062
   2   32737.7    305.5    -75.23191   0.04958   0.01198  -0.00104
   3   31664.7    315.8     12.98310   0.03121  -0.00412   0.00067
   4   36687.7    272.6     -1.48398  -0.00176  -0.01024   0.00035
   5   33729.2    296.5     13.52402   0.01625  -0.00656  -0.00713
   6   37525.0    266.5     22.33896  -0.00112   0.03944  -1.75413
   7   34712.7    288.1    -12.51397  -0.00405   0.01095   1.07140
   8   35654.3    280.5      0.99481  -0.02852   0.00118  -0.00466
   9   37713.5    265.2    -37.72816  -0.00012   0.00348   1.19888
  10   36100.4    277.0     41.50901  -0.00161  -0.03729   0.37084
  11   38853.0    257.4    -11.64257  -0.07673  -0.00130  -0.00795
  12   39380.7    253.9      0.50573   0.06026   0.00017  -0.01014
  13   40527.0    246.7      0.90258   0.01378  -0.00054  -0.01869
  14   39821.4    251.1     41.74483  -0.00061   0.04772  -1.61262
  15   36803.3    271.7      6.14839  -0.00003   0.00409  -0.08592
  16   39645.7    252.2     -0.48834  -0.00331  -0.00140   0.00147
  17   41918.1    238.6     57.84091  -0.14549   0.00269  -0.00914
  18   42026.4    237.9     -5.92274   0.00237  -0.03876   0.49347
  19   43374.4    230.6    -19.27175  -0.00237   0.10516   1.65696
  20   40751.4    245.4    125.55512   0.00045   0.08800  -2.59354
  21   42738.5    234.0    -63.20832  -0.00130  -0.02685  -2.94035
  22   45019.0    222.1      4.47948   0.03600  -0.00163   0.00415
  23   42810.7    233.6     69.65605   0.00327  -0.08933   2.62057
  24   39787.2    251.3    -21.62148   0.00029  -0.02675  -0.31616
  25   44782.2    223.3    -21.73749  -0.02104  -0.01422   0.00088
  26   45183.4    221.3     -4.60107   0.00083  -0.03307  -0.20874
  27   44318.1    225.6     11.28850   0.00626   0.15044   0.38009
  28   46008.7    217.4      3.86614   0.04905  -0.00136  -0.00096
  29   44761.8    223.4    -123.99969  -0.00294  -0.23599  -0.63238
  30   44259.1    225.9     -6.08915  -0.07368  -0.00087   0.00269
  31   46683.4    214.2     21.45422   0.01300   0.03304   0.26147
  32   46749.6    213.9     12.12529  -0.00041  -0.03768  -0.20130
  33   49332.4    202.7      1.10282   0.06805   0.00089  -0.01005
  34   47160.0    212.0      1.06822   0.01219  -0.00126  -0.02666
  35   47727.3    209.5     28.95737  -0.00991   0.00944  -2.66768
  36   51534.7    194.0    -20.03601   0.03251   0.00799  -0.00369
  37   49655.2    201.4     24.42430  -0.05058   0.00680  -0.00988
  38   49469.5    202.1    -87.08109   0.11440   0.01275  -0.00465
  39   50549.5    197.8     50.85433   0.04078  -0.01686  -0.00249
  40   44452.7    225.0      0.02443   0.00106  -0.00025  -0.00039

Total run time:    10840.267 sec

           *** ORCA-CIS/TD-DFT FINISHED WITHOUT ERROR ***

Maximum memory used throughout the entire CIS-calculation: 4311.5 MB

-----------------------
CIS/TD-DFT TOTAL ENERGY
-----------------------

    E(SCF)  =  -1976.590847789 Eh
    DE(CIS) =      0.132400228 Eh (Root  1)
    ----------------------------- ---------
    E(tot)  =  -1976.458447560 Eh


-------------------------   --------------------
FINAL SINGLE POINT ENERGY     -1976.458447560355
-------------------------   --------------------


                            ***************************************
                            *     ORCA property calculations      *
                            ***************************************


  WARNING: The energy has been calculated at the MP2 level but the densities
           used in the property calculations are still SCF densities
           MP2 response densities have not been calculated 
           use %mp2 Density relaxed end
           or  %mp2 Density unrelaxed end

                                    ---------------------
                                    Active property flags
                                    ---------------------
   (+) Dipole Moment


------------------------------------------------------------------------------
                       ORCA ELECTRIC PROPERTIES CALCULATION
------------------------------------------------------------------------------

Dipole Moment Calculation                       ... on
Quadrupole Moment Calculation                   ... off
Polarizability Calculation                      ... off
GBWName                                         ... Au-alkyne_2-full_SCS-PBE-QIDH_def2SVP.gbw
Electron density                                ... Au-alkyne_2-full_SCS-PBE-QIDH_def2SVP.scfp
The origin for moment calculation is the CENTER OF MASS  = (-0.714600, -0.000155 -0.001243)

-------------
DIPOLE MOMENT
-------------
                                X             Y             Z
Electronic contribution:   -764.76752      -0.12560      -1.23421
Nuclear contribution   :    760.98124       0.12762       1.26625
                        -----------------------------------------
Total Dipole Moment    :     -3.78628       0.00202       0.03204
                        -----------------------------------------
Magnitude (a.u.)       :      3.78642
Magnitude (Debye)      :      9.62431



--------------------
Rotational spectrum 
--------------------
 
Rotational constants in cm-1:     0.003106     0.000590     0.000500 
Rotational constants in MHz :    93.110247    17.673572    14.995213 

 Dipole components along the rotational axes: 
x,y,z [a.u.] :    -3.786280     0.002048     0.032111 
x,y,z [Debye]:    -9.623958     0.005206     0.081620 

 

Timings for individual modules:

Sum of individual times         ...    11306.016 sec (= 188.434 min)
GTO integral calculation        ...        2.576 sec (=   0.043 min)   0.0 %
SCF iterations                  ...      269.229 sec (=   4.487 min)   2.4 %
MP2 module                      ...      192.780 sec (=   3.213 min)   1.7 %
CIS module                      ...    10841.431 sec (= 180.691 min)  95.9 %
                             ****ORCA TERMINATED NORMALLY****
TOTAL RUN TIME: 0 days 3 hours 8 minutes 28 seconds 276 msec
