
                                 *****************
                                 * O   R   C   A *
                                 *****************

                                            #,                                       
                                            ###                                      
                                            ####                                     
                                            #####                                    
                                            ######                                   
                                           ########,                                 
                                     ,,################,,,,,                         
                               ,,#################################,,                 
                          ,,##########################################,,             
                       ,#########################################, ''#####,          
                    ,#############################################,,   '####,        
                  ,##################################################,,,,####,       
                ,###########''''           ''''###############################       
              ,#####''   ,,,,##########,,,,          '''####'''          '####       
            ,##' ,,,,###########################,,,                        '##       
           ' ,,###''''                  '''############,,,                           
         ,,##''                                '''############,,,,        ,,,,,,###''
      ,#''                                            '''#######################'''  
     '                                                          ''''####''''         
             ,#######,   #######,   ,#######,      ##                                
            ,#'     '#,  ##    ##  ,#'     '#,    #''#        ######   ,####,        
            ##       ##  ##   ,#'  ##            #'  '#       #        #'  '#        
            ##       ##  #######   ##           ,######,      #####,   #    #        
            '#,     ,#'  ##    ##  '#,     ,#' ,#      #,         ##   #,  ,#        
             '#######'   ##     ##  '#######'  #'      '#     #####' # '####'        



                  #######################################################
                  #                        -***-                        #
                  #          Department of theory and spectroscopy      #
                  #    Directorship and core code : Frank Neese         #
                  #        Max Planck Institute fuer Kohlenforschung    #
                  #                Kaiser Wilhelm Platz 1               #
                  #                 D-45470 Muelheim/Ruhr               #
                  #                      Germany                        #
                  #                                                     #
                  #                  All rights reserved                #
                  #                        -***-                        #
                  #######################################################


                         Program Version 5.0.4 -  RELEASE  -


 With contributions from (in alphabetic order):
   Daniel Aravena         : Magnetic Suceptibility
   Michael Atanasov       : Ab Initio Ligand Field Theory (pilot matlab implementation)
   Alexander A. Auer      : GIAO ZORA, VPT2 properties, NMR spectrum
   Ute Becker             : Parallelization
   Giovanni Bistoni       : ED, misc. LED, open-shell LED, HFLD
   Martin Brehm           : Molecular dynamics
   Dmytro Bykov           : SCF Hessian
   Vijay G. Chilkuri      : MRCI spin determinant printing, contributions to CSF-ICE
   Dipayan Datta          : RHF DLPNO-CCSD density
   Achintya Kumar Dutta   : EOM-CC, STEOM-CC
   Dmitry Ganyushin       : Spin-Orbit,Spin-Spin,Magnetic field MRCI
   Miquel Garcia          : C-PCM and meta-GGA Hessian, CC/C-PCM, Gaussian charge scheme
   Yang Guo               : DLPNO-NEVPT2, F12-NEVPT2, CIM, IAO-localization
   Andreas Hansen         : Spin unrestricted coupled pair/coupled cluster methods
   Benjamin Helmich-Paris : MC-RPA, TRAH-SCF, COSX integrals
   Lee Huntington         : MR-EOM, pCC
   Robert Izsak           : Overlap fitted RIJCOSX, COSX-SCS-MP3, EOM
   Marcus Kettner         : VPT2
   Christian Kollmar      : KDIIS, OOCD, Brueckner-CCSD(T), CCSD density, CASPT2, CASPT2-K
   Simone Kossmann        : Meta GGA functionals, TD-DFT gradient, OOMP2, MP2 Hessian
   Martin Krupicka        : Initial AUTO-CI
   Lucas Lang             : DCDCAS
   Marvin Lechner         : AUTO-CI (C++ implementation), FIC-MRCC
   Dagmar Lenk            : GEPOL surface, SMD
   Dimitrios Liakos       : Extrapolation schemes; Compound Job, initial MDCI parallelization
   Dimitrios Manganas     : Further ROCIS development; embedding schemes
   Dimitrios Pantazis     : SARC Basis sets
   Anastasios Papadopoulos: AUTO-CI, single reference methods and gradients
   Taras Petrenko         : DFT Hessian,TD-DFT gradient, ASA, ECA, R-Raman, ABS, FL, XAS/XES, NRVS
   Peter Pinski           : DLPNO-MP2, DLPNO-MP2 Gradient
   Christoph Reimann      : Effective Core Potentials
   Marius Retegan         : Local ZFS, SOC
   Christoph Riplinger    : Optimizer, TS searches, QM/MM, DLPNO-CCSD(T), (RO)-DLPNO pert. Triples
   Tobias Risthaus        : Range-separated hybrids, TD-DFT gradient, RPA, STAB
   Michael Roemelt        : Original ROCIS implementation
   Masaaki Saitow         : Open-shell DLPNO-CCSD energy and density
   Barbara Sandhoefer     : DKH picture change effects
   Avijit Sen             : IP-ROCIS
   Kantharuban Sivalingam : CASSCF convergence, NEVPT2, FIC-MRCI
   Bernardo de Souza      : ESD, SOC TD-DFT
   Georgi Stoychev        : AutoAux, RI-MP2 NMR, DLPNO-MP2 response
   Willem Van den Heuvel  : Paramagnetic NMR
   Boris Wezisla          : Elementary symmetry handling
   Frank Wennmohs         : Technical directorship


 We gratefully acknowledge several colleagues who have allowed us to
 interface, adapt or use parts of their codes:
   Stefan Grimme, W. Hujo, H. Kruse, P. Pracht,  : VdW corrections, initial TS optimization,
                  C. Bannwarth, S. Ehlert          DFT functionals, gCP, sTDA/sTD-DF
   Ed Valeev, F. Pavosevic, A. Kumar             : LibInt (2-el integral package), F12 methods
   Garnet Chan, S. Sharma, J. Yang, R. Olivares  : DMRG
   Ulf Ekstrom                                   : XCFun DFT Library
   Mihaly Kallay                                 : mrcc  (arbitrary order and MRCC methods)
   Jiri Pittner, Ondrej Demel                    : Mk-CCSD
   Frank Weinhold                                : gennbo (NPA and NBO analysis)
   Christopher J. Cramer and Donald G. Truhlar   : smd solvation model
   Lars Goerigk                                  : TD-DFT with DH, B97 family of functionals
   V. Asgeirsson, H. Jonsson                     : NEB implementation
   FAccTs GmbH                                   : IRC, NEB, NEB-TS, DLPNO-Multilevel, CI-OPT
                                                   MM, QMMM, 2- and 3-layer-ONIOM, Crystal-QMMM,
                                                   LR-CPCM, SF, NACMEs, symmetry and pop. for TD-DFT,
                                                   nearIR, NL-DFT gradient (VV10), updates on ESD,
                                                   ML-optimized integration grids
   S Lehtola, MJT Oliveira, MAL Marques          : LibXC Library
   Liviu Ungur et al                             : ANISO software


 Your calculation uses the libint2 library for the computation of 2-el integrals
 For citations please refer to: http://libint.valeyev.net

 Your ORCA version has been built with support for libXC version: 5.1.0
 For citations please refer to: https://tddft.org/programs/libxc/

 This ORCA versions uses:
   CBLAS   interface :  Fast vector & matrix operations
   LAPACKE interface :  Fast linear algebra routines
   SCALAPACK package :  Parallel linear algebra routines
   Shared memory     :  Shared parallel matrices
   BLAS/LAPACK       :  OpenBLAS 0.3.15  USE64BITINT DYNAMIC_ARCH NO_AFFINITY Zen SINGLE_THREADED
        Core in use  :  Zen
   Copyright (c) 2011-2014, The OpenBLAS Project


Your calculation utilizes the SMD solvation module
Please cite in your paper:
A.V. Marenich, C.J. Cramer, D.G. Truhlar J. Phys. Chem. B, 113, (2009), 6378 

================================================================================

cite the ECPs for Au [Def2-ECP] as follows:
Ce-Yb(ecp-28): M. Dolg, H. Stoll, H.Preuss, J. Chem. Phys., 1989, 90, 1730-1734.
Y-Cd(ecp-28), Hf-Hg(ecp-46): D. Andrae,U. Haeussermann, M. Dolg, H. Stoll, H. Preuss, Theor. Chim. Acta, 1990, 77, 123-141.
In-Sb(ecp-28), Tl-Bi(ecp-46): B. Metz, H. Stoll, M. Dolg, J. Chem. Phys., 2000, 113, 2563-2569.
Te-Xe(ecp-28), Po-Rn(ecp-46): K. A. Peterson, D. Figgen, E. Goll, H. Stoll, M. Dolg, J. Chem. Phys., 2003, 119, 11113-11123.
Rb(ecp-28), Cs(ecp-46): T. Leininger, A. Nicklass, W. Kuechle, H. Stoll, M. Dolg, A. Bergner, Chem. Phys. Lett., 1996, 255, 274-280.
Sr(ecp-28), Ba(ecp-46): M. Kaupp, P. V. Schleyer, H. Stoll and H. Preuss, J. Chem. Phys., 1991, 94, 1360-1366.
La(ecp-46): M. Dolg, H. Stoll, A. Savin, H. Preuss, Theor. Chim. Acta, 1989, 75, 173-194.
Lu(ecp-28): X. Cao, M. Dolg, J. Chem. Phys., 2001, 115, 7348-7355.

ECP parameters for Au [Def2-ECP] have been obtained from:
TURBOMOLE (7.0.2)

----- Orbital basis set information -----
Your calculation utilizes the basis: def2-SVP
   F. Weigend and R. Ahlrichs, Phys. Chem. Chem. Phys. 7, 3297 (2005).

----- AuxJ basis set information -----
Your calculation utilizes the auxiliary basis: def2/J
   F. Weigend, Phys. Chem. Chem. Phys. 8, 1057 (2006).

----- AuxC basis set information -----
Your calculation utilizes the auxiliary basis: def2-SVP/C
  H-La, Hf-Rn : A. Hellweg, C. Hattig, S. Hofener and W. Klopper, Theor. Chem. Acc. 117, 587 (2007).
        Ce-Lu : J. Chmela and M. E. Harding, Mol. Phys. (2018).

================================================================================
                                        WARNINGS
                       Please study these warnings very carefully!
================================================================================

INFO   : Checking CIS options ...
  ===> : (D) CORRECTION FOUND - SETTING MODE=3
  ===> : JK MODE FOUND - ACTIVATING RI-MP2 CODE
  ===> : MP2 AND CIS FOUND - CHECKING
WARNING: CIS(D) and MP2 runs must have the same orbital window
  ===> : adjusting orbital windows

WARNING: No MP2 level density has been requested!
         To caclulate MP2 level properties use
         %mp2 Density relaxed end
         or
         %mp2 Density unrelaxed end
         Otherwise for double-hybrid DFT only the energy is correct!

WARNING: The frozen-core approximation is turned on by default for 
         the MP2 part of double-hybrid DFT.

WARNING:  You are using a Range-Separated Double Hybrid functional with Doubles Correction 
          Changing Mode to RPA_AOINTS 


WARNING: CIS/ROCIS methods need fully converged wavefunctions
  ===> : Setting SCFConvForced true
         You can overwrite this default with %scf ConvForced false 


INFO   : the flag for use of the SHARK integral package has been found!

================================================================================
                                       INPUT FILE
================================================================================
NAME = Au-alkyne_2_SOS-wPBEPP86_def2SVP.inp
|  1> %maxcore 8000
|  2> %pal
|  3>  nprocs 8
|  4> end
|  5> ! RI-SOS-wPBEPP86 def2-SVP def2/J def2-SVP/C RIJCOSX CPCM TIGHTSCF
|  6> 
|  7> %TDDFT 
|  8>     DCORR     1
|  9>     NROOTS    40
| 10>     doscs     TRUE
| 11>     TDA       FALSE
| 12> END
| 13> 
| 14> %CPCM
| 15>     SMD		TRUE
| 16>     SMDsolvent	"Acetonitrile"
| 17> END
| 18> 
| 19> * xyz 0 1
| 20> Au                 -4.55610900   -0.00065700   -0.00742000
| 21> C                  -7.22581000    1.19989100    0.00366500
| 22> C                  -7.22686800   -1.19841200    0.02526000
| 23> C                  -8.62468400   -1.21246900    0.03707300
| 24> C                  -9.30875400    0.00179600    0.03062700
| 25> C                  -8.62362200    1.21536500    0.01368300
| 26> C                  -6.31258900    2.35092900   -0.01260700
| 27> C                  -4.91233800    2.08377800   -0.02103800
| 28> C                  -4.03073100    3.16317200   -0.03755100
| 29> C                  -4.50455500    4.48040500   -0.04537200
| 30> C                  -5.87658500    4.73454900   -0.03628100
| 31> C                  -6.77911900    3.67397100   -0.01984200
| 32> H                  -9.16746500   -2.15763800    0.05044200
| 33> H                 -10.40062400    0.00235800    0.03897900
| 34> H                  -9.16557800    2.16109200    0.00852800
| 35> H                  -2.95037500    2.98720800   -0.04490100
| 36> H                  -3.79628400    5.31345200   -0.05864300
| 37> H                  -6.24576900    5.76258400   -0.04220600
| 38> H                  -7.85301400    3.87861300   -0.01305900
| 39> C                  -6.31470300   -2.35038600    0.02780500
| 40> C                  -6.78246400   -3.67289900    0.04490100
| 41> C                  -4.91422200   -2.08473900    0.01291500
| 42> C                  -5.88092600   -4.73444300    0.04796700
| 43> H                  -7.85653800   -3.87638500    0.05631300
| 44> C                  -4.03362600   -3.16507900    0.01645300
| 45> C                  -4.50866400   -4.48178700    0.03387300
| 46> H                  -6.25106000   -5.76206300    0.06165200
| 47> H                  -2.95310100   -2.99029000    0.00606400
| 48> H                  -3.80115700   -5.31558400    0.03662800
| 49> N                  -6.60305800    0.00041700    0.00940600
| 50> C                  -2.57853500   -0.00180100   -0.01843800
| 51> C                  -1.34813500   -0.00248200   -0.02012500
| 52> C                   0.07667200   -0.00330700   -0.01956400
| 53> C                   0.80462800    0.81994600   -0.90326900
| 54> C                   0.80171100   -0.82692900    0.86626300
| 55> C                   2.19301300    0.81303300   -0.90817700
| 56> H                   0.26577800    1.46052700   -1.60480400
| 57> C                   2.18999800   -0.81962500    0.87629500
| 58> H                   0.26045900   -1.46745900    1.56599600
| 59> C                   2.90003800   -0.00291800   -0.01440900
| 60> H                   2.73833300    1.43568700   -1.62033400
| 61> H                   2.73277800   -1.44197600    1.59065300
| 62> C                   5.13017900   -1.12972200   -0.01493000
| 63> C                   5.12780800    1.12811300    0.00198500
| 64> C                   4.79428800   -2.48486500   -0.07171500
| 65> C                   6.48497100   -0.72070100   -0.00576700
| 66> C                   4.78862900    2.48255700    0.05565000
| 67> C                   6.48344900    0.72182400    0.00655100
| 68> C                   5.83116500   -3.41123200   -0.09215700
| 69> H                   3.75484700   -2.81707200   -0.10659600
| 70> C                   7.50720400   -1.68032400   -0.02511400
| 71> C                   5.82336700    3.41101000    0.08704100
| 72> H                   3.74821700    2.81265700    0.07988500
| 73> C                   7.50347700    1.68350800    0.03675600
| 74> C                   7.19623400   -3.04103700   -0.06189600
| 75> H                   5.56919400   -4.47217500   -0.13525100
| 76> H                   8.54544900   -1.34193300   -0.01524400
| 77> C                   7.18941600    3.04358200    0.07083200
| 78> H                   5.55884300    4.47141000    0.12773300
| 79> H                   8.54243700    1.34717700    0.03758300
| 80> N                   4.31049800   -0.00165500   -0.01068900
| 81> C                   8.25679100    4.14021400    0.09477500
| 82> C                   8.26601200   -4.13550300   -0.07468100
| 83> C                   8.11580700   -4.98114700   -1.34421600
| 84> H                   8.87453700   -5.77843600   -1.37196300
| 85> H                   7.13068800   -5.46648600   -1.40458300
| 86> H                   8.24218200   -4.37042000   -2.25119600
| 87> C                   9.67632800   -3.55430600   -0.04457300
| 88> H                  10.41917600   -4.36540600   -0.05285800
| 89> H                   9.88104100   -2.91615600   -0.91706500
| 90> H                   9.85868800   -2.95468300    0.85966600
| 91> C                   8.08535600   -5.03588800    1.15279500
| 92> H                   8.18763600   -4.46526500    2.08849800
| 93> H                   7.09971300   -5.52383800    1.16691700
| 94> H                   8.84456400   -5.83315000    1.16517000
| 95> C                   8.09064200    4.98676200    1.36171900
| 96> H                   8.84784700    5.78517900    1.39748400
| 97> H                   7.10424100    5.47080600    1.41025900
| 98> H                   8.20740200    4.37706200    2.27067500
| 99> C                   9.66852100    3.56183200    0.08113200
|100> H                   9.86237900    2.96192500   -0.82051900
|101> H                  10.40959800    4.37443100    0.09724200
|102> H                   9.86451800    2.92471300    0.95638000
|103> C                   8.08812900    5.03904600   -1.13554000
|104> H                   8.20281700    4.46782900   -2.06943900
|105> H                   7.10140500    5.52432100   -1.16162900
|106> H                   8.84534900    5.83828400   -1.13983900
|107> *
|108> 
|109>                          ****END OF INPUT****
================================================================================

                       ****************************
                       * Single Point Calculation *
                       ****************************

---------------------------------
CARTESIAN COORDINATES (ANGSTROEM)
---------------------------------
  Au    -4.556109   -0.000657   -0.007420
  C     -7.225810    1.199891    0.003665
  C     -7.226868   -1.198412    0.025260
  C     -8.624684   -1.212469    0.037073
  C     -9.308754    0.001796    0.030627
  C     -8.623622    1.215365    0.013683
  C     -6.312589    2.350929   -0.012607
  C     -4.912338    2.083778   -0.021038
  C     -4.030731    3.163172   -0.037551
  C     -4.504555    4.480405   -0.045372
  C     -5.876585    4.734549   -0.036281
  C     -6.779119    3.673971   -0.019842
  H     -9.167465   -2.157638    0.050442
  H    -10.400624    0.002358    0.038979
  H     -9.165578    2.161092    0.008528
  H     -2.950375    2.987208   -0.044901
  H     -3.796284    5.313452   -0.058643
  H     -6.245769    5.762584   -0.042206
  H     -7.853014    3.878613   -0.013059
  C     -6.314703   -2.350386    0.027805
  C     -6.782464   -3.672899    0.044901
  C     -4.914222   -2.084739    0.012915
  C     -5.880926   -4.734443    0.047967
  H     -7.856538   -3.876385    0.056313
  C     -4.033626   -3.165079    0.016453
  C     -4.508664   -4.481787    0.033873
  H     -6.251060   -5.762063    0.061652
  H     -2.953101   -2.990290    0.006064
  H     -3.801157   -5.315584    0.036628
  N     -6.603058    0.000417    0.009406
  C     -2.578535   -0.001801   -0.018438
  C     -1.348135   -0.002482   -0.020125
  C      0.076672   -0.003307   -0.019564
  C      0.804628    0.819946   -0.903269
  C      0.801711   -0.826929    0.866263
  C      2.193013    0.813033   -0.908177
  H      0.265778    1.460527   -1.604804
  C      2.189998   -0.819625    0.876295
  H      0.260459   -1.467459    1.565996
  C      2.900038   -0.002918   -0.014409
  H      2.738333    1.435687   -1.620334
  H      2.732778   -1.441976    1.590653
  C      5.130179   -1.129722   -0.014930
  C      5.127808    1.128113    0.001985
  C      4.794288   -2.484865   -0.071715
  C      6.484971   -0.720701   -0.005767
  C      4.788629    2.482557    0.055650
  C      6.483449    0.721824    0.006551
  C      5.831165   -3.411232   -0.092157
  H      3.754847   -2.817072   -0.106596
  C      7.507204   -1.680324   -0.025114
  C      5.823367    3.411010    0.087041
  H      3.748217    2.812657    0.079885
  C      7.503477    1.683508    0.036756
  C      7.196234   -3.041037   -0.061896
  H      5.569194   -4.472175   -0.135251
  H      8.545449   -1.341933   -0.015244
  C      7.189416    3.043582    0.070832
  H      5.558843    4.471410    0.127733
  H      8.542437    1.347177    0.037583
  N      4.310498   -0.001655   -0.010689
  C      8.256791    4.140214    0.094775
  C      8.266012   -4.135503   -0.074681
  C      8.115807   -4.981147   -1.344216
  H      8.874537   -5.778436   -1.371963
  H      7.130688   -5.466486   -1.404583
  H      8.242182   -4.370420   -2.251196
  C      9.676328   -3.554306   -0.044573
  H     10.419176   -4.365406   -0.052858
  H      9.881041   -2.916156   -0.917065
  H      9.858688   -2.954683    0.859666
  C      8.085356   -5.035888    1.152795
  H      8.187636   -4.465265    2.088498
  H      7.099713   -5.523838    1.166917
  H      8.844564   -5.833150    1.165170
  C      8.090642    4.986762    1.361719
  H      8.847847    5.785179    1.397484
  H      7.104241    5.470806    1.410259
  H      8.207402    4.377062    2.270675
  C      9.668521    3.561832    0.081132
  H      9.862379    2.961925   -0.820519
  H     10.409598    4.374431    0.097242
  H      9.864518    2.924713    0.956380
  C      8.088129    5.039046   -1.135540
  H      8.202817    4.467829   -2.069439
  H      7.101405    5.524321   -1.161629
  H      8.845349    5.838284   -1.139839

----------------------------
CARTESIAN COORDINATES (A.U.)
----------------------------
  NO LB      ZA    FRAG     MASS         X           Y           Z
   0 Au   19.0000*   0   196.966   -8.609798   -0.001242   -0.014022
   1 C     6.0000    0    12.011  -13.654802    2.267465    0.006926
   2 C     6.0000    0    12.011  -13.656801   -2.264670    0.047734
   3 C     6.0000    0    12.011  -16.298291   -2.291234    0.070058
   4 C     6.0000    0    12.011  -17.590996    0.003394    0.057877
   5 C     6.0000    0    12.011  -16.296284    2.296707    0.025857
   6 C     6.0000    0    12.011  -11.929064    4.442612   -0.023824
   7 C     6.0000    0    12.011   -9.282973    3.937770   -0.039756
   8 C     6.0000    0    12.011   -7.616978    5.977529   -0.070961
   9 C     6.0000    0    12.011   -8.512375    8.466738   -0.085741
  10 C     6.0000    0    12.011  -11.105136    8.947001   -0.068561
  11 C     6.0000    0    12.011  -12.810678    6.942799   -0.037496
  12 H     1.0000    0     1.008  -17.323998   -4.077345    0.095322
  13 H     1.0000    0     1.008  -19.654331    0.004456    0.073660
  14 H     1.0000    0     1.008  -17.320432    4.083872    0.016116
  15 H     1.0000    0     1.008   -5.575401    5.645005   -0.084851
  16 H     1.0000    0     1.008   -7.173937   10.040969   -0.110819
  17 H     1.0000    0     1.008  -11.802793   10.889706   -0.079758
  18 H     1.0000    0     1.008  -14.840046    7.329516   -0.024678
  19 C     6.0000    0    12.011  -11.933059   -4.441586    0.052544
  20 C     6.0000    0    12.011  -12.816999   -6.940773    0.084851
  21 C     6.0000    0    12.011   -9.286534   -3.939586    0.024406
  22 C     6.0000    0    12.011  -11.113340   -8.946801    0.090644
  23 H     1.0000    0     1.008  -14.846705   -7.325306    0.106416
  24 C     6.0000    0    12.011   -7.622448   -5.981133    0.031092
  25 C     6.0000    0    12.011   -8.520140   -8.469350    0.064011
  26 H     1.0000    0     1.008  -11.812791  -10.888721    0.116505
  27 H     1.0000    0     1.008   -5.580552   -5.650829    0.011459
  28 H     1.0000    0     1.008   -7.183146  -10.044998    0.069217
  29 N     7.0000    0    14.007  -12.477971    0.000788    0.017775
  30 C     6.0000    0    12.011   -4.872725   -0.003403   -0.034843
  31 C     6.0000    0    12.011   -2.547606   -0.004690   -0.038031
  32 C     6.0000    0    12.011    0.144889   -0.006249   -0.036971
  33 C     6.0000    0    12.011    1.520527    1.549473   -1.706931
  34 C     6.0000    0    12.011    1.515014   -1.562669    1.637000
  35 C     6.0000    0    12.011    4.144194    1.536410   -1.716206
  36 H     1.0000    0     1.008    0.502248    2.759996   -3.032640
  37 C     6.0000    0    12.011    4.138496   -1.548867    1.655958
  38 H     1.0000    0     1.008    0.492196   -2.773096    2.959304
  39 C     6.0000    0    12.011    5.480278   -0.005514   -0.027229
  40 H     1.0000    0     1.008    5.174699    2.713055   -3.061988
  41 H     1.0000    0     1.008    5.164202   -2.724940    3.005899
  42 C     6.0000    0    12.011    9.694633   -2.134865   -0.028214
  43 C     6.0000    0    12.011    9.690153    2.131825    0.003751
  44 C     6.0000    0    12.011    9.059891   -4.695714   -0.135522
  45 C     6.0000    0    12.011   12.254819   -1.361928   -0.010898
  46 C     6.0000    0    12.011    9.049197    4.691353    0.105163
  47 C     6.0000    0    12.011   12.251943    1.364050    0.012380
  48 C     6.0000    0    12.011   11.019305   -6.446294   -0.174151
  49 H     1.0000    0     1.008    7.095633   -5.323495   -0.201437
  50 C     6.0000    0    12.011   14.186560   -3.175352   -0.047459
  51 C     6.0000    0    12.011   11.004569    6.445875    0.164484
  52 H     1.0000    0     1.008    7.083104    5.315151    0.150961
  53 C     6.0000    0    12.011   14.179517    3.181369    0.069459
  54 C     6.0000    0    12.011   13.598911   -5.746727   -0.116966
  55 H     1.0000    0     1.008   10.524251   -8.451186   -0.255587
  56 H     1.0000    0     1.008   16.148558   -2.535886   -0.028807
  57 C     6.0000    0    12.011   13.586027    5.751536    0.133853
  58 H     1.0000    0     1.008   10.504691    8.449740    0.241380
  59 H     1.0000    0     1.008   16.142866    2.545796    0.071022
  60 N     7.0000    0    14.007    8.145661   -0.003127   -0.020199
  61 C     6.0000    0    12.011   15.603074    7.823871    0.179099
  62 C     6.0000    0    12.011   15.620499   -7.814968   -0.141127
  63 C     6.0000    0    12.011   15.336653   -9.413004   -2.540200
  64 H     1.0000    0     1.008   16.770444  -10.919662   -2.592634
  65 H     1.0000    0     1.008   13.475047  -10.330161   -2.654277
  66 H     1.0000    0     1.008   15.575467   -8.258897   -4.254144
  67 C     6.0000    0    12.011   18.285610   -6.716665   -0.084231
  68 H     1.0000    0     1.008   19.689389   -8.249422   -0.099887
  69 H     1.0000    0     1.008   18.672461   -5.510736   -1.733002
  70 H     1.0000    0     1.008   18.630220   -5.583542    1.624533
  71 C     6.0000    0    12.011   15.279109   -9.516449    2.178467
  72 H     1.0000    0     1.008   15.472390   -8.438128    3.946689
  73 H     1.0000    0     1.008   13.416513  -10.438541    2.205154
  74 H     1.0000    0     1.008   16.713804  -11.023056    2.201852
  75 C     6.0000    0    12.011   15.289098    9.423614    2.573276
  76 H     1.0000    0     1.008   16.720008   10.932404    2.640862
  77 H     1.0000    0     1.008   13.425070   10.338325    2.665003
  78 H     1.0000    0     1.008   15.509742    8.271448    4.290954
  79 C     6.0000    0    12.011   18.270857    6.730887    0.153317
  80 H     1.0000    0     1.008   18.637195    5.597227   -1.550556
  81 H     1.0000    0     1.008   19.671289    8.266477    0.183761
  82 H     1.0000    0     1.008   18.641237    5.526907    1.807296
  83 C     6.0000    0    12.011   15.284349    9.522417   -2.145860
  84 H     1.0000    0     1.008   15.501078    8.442973   -3.910673
  85 H     1.0000    0     1.008   13.419711   10.439454   -2.195161
  86 H     1.0000    0     1.008   16.715287   11.032758   -2.153984
* core charge reduced due to ECP

--------------------------------
INTERNAL COORDINATES (ANGSTROEM)
--------------------------------
 Au     0   0   0     0.000000000000     0.00000000     0.00000000
 C      1   0   0     2.927241330490     0.00000000     0.00000000
 C      2   1   0     2.398400455136    65.81549074     0.00000000
 C      3   2   1     1.397936592294    90.60575953   179.99078595
 C      4   3   2     1.393711880570   118.81504212     0.05799218
 C      5   4   3     1.393715420852   121.15828711   359.95540582
 C      2   1   3     1.469396423798    75.78356888   179.93660097
 C      7   2   1     1.425532743069   117.62843979     0.00000000
 C      8   7   2     1.393770063122   118.44092369   179.95031649
 C      9   8   7     1.399883254884   120.97661375     0.00000000
 C     10   9   8     1.395398917843   120.27467623     0.00000000
 C     11  10   9     1.392718046110   119.90523517   359.97691601
 H      4   3   2     1.090015771759   120.44672676   180.01975235
 H      5   4   3     1.091902087482   119.42110330   179.95422745
 H      6   5   4     1.090019467023   120.73842611   179.98746992
 H      9   8   7     1.094617028249   119.99193768   180.03470486
 H     10   9   8     1.093522397160   119.84553280   180.01842018
 H     11  10   9     1.092331402417   120.24456594   179.98883070
 H     12  11  10     1.093240517122   119.61019363   180.01710834
 C      3   2   1     1.469386117032   141.59996480     0.00000000
 C     20   3   2     1.402901729098   122.14731056   179.94304263
 C     20   3   2     1.425530452874   117.62988896     0.00000000
 C     21  20   3     1.392715272314   120.18073002   180.06144865
 H     21  20   3     1.093239106242   120.21005789     0.03603702
 C     22  20   3     1.393770550794   118.43988333   179.93574219
 C     23  21  20     1.395398398959   119.90476991     0.00000000
 H     23  21  20     1.092332056465   119.85060596   179.97911569
 H     25  22  20     1.094620208779   119.99189037   180.04757101
 H     26  23  21     1.093522373929   119.88008612   179.97935742
 N      3   2   1     1.351510723841    27.46384452     0.00000000
 C      1   2   3     1.977605023895   155.82004628   180.36687931
 C     31   1   2     1.230401344981   179.75933532    89.84012438
 C     32  31   1     1.424807349291   179.89887180     1.17046107
 C     33  32  31     1.410177282107   121.03964441   222.14773998
 C     33  32  31     1.410221338774   120.97852212    42.08129483
 C     34  33  32     1.388410885242   121.03187151   180.39433731
 H     34  33  32     1.092178875590   119.35636694   359.41868445
 C     35  33  32     1.388342459125   121.03603968   180.59707932
 H     35  33  32     1.092180699195   119.35176602   359.56673242
 C     36  34  33     1.401599665686   120.33643054   359.01042909
 H     36  34  33     1.091897201556   119.92601230   178.18387221
 H     38  35  33     1.091896628699   119.92112405   178.13128372
 C     40  36  34     2.498642912810   135.44970541   152.04653620
 C     43  40  36     2.257899604963    63.13484256    65.86818231
 C     43  40  36     1.397304494573   102.87438107   247.77951294
 C     43  40  36     1.415218535165   136.39349534    65.94348722
 C     44  43  40     1.397297704644   165.89385832     7.54517354
 C     44  43  40     1.415222286695    73.25824707   179.88188110
 C     45  43  40     1.390570964454   117.86768609   179.75826006
 H     45  43  40     1.091794746045   121.68516721     0.19413304
 C     46  43  40     1.402216429381   120.00028386   180.72031108
 C     47  44  48     1.390572938301   117.86838708     1.22359289
 H     47  44  48     1.091792322271   121.68457248   181.65977799
 C     48  44  43     1.402214526620   119.99951455   180.81468325
 C     51  46  43     1.396279028272   120.32684963     0.40150106
 H     49  45  43     1.093657143225   117.91877842   179.92011149
 H     51  46  43     1.092043298503   118.74490311   180.13949279
 C     54  48  44     1.396279617760   120.32824864     0.39899118
 H     52  47  44     1.093653027902   117.91987636   179.92190113
 H     54  48  44     1.092042630619   118.74238607   180.12834135
 N     43  40  36     1.394428228462    27.19166409    65.75115275
 C     58  54  48     1.530511156868   122.78257296   180.44642534
 C     55  51  46     1.530504573879   122.78146575   180.43581303
 C     63  55  51     1.532773444768   109.44794265   239.61191227
 H     64  63  55     1.100959063013   110.66324596   180.21771461
 H     64  63  55     1.099844336154   112.12892251   299.90304617
 H     64  63  55     1.100713781850   111.41470323    60.58008703
 C     63  55  51     1.525676133499   111.93419880   359.92461454
 H     68  63  55     1.099897723577   110.07458716   179.90138560
 H     68  63  55     1.100175042860   112.16763565   299.19656274
 H     68  63  55     1.100205017644   112.15141857    60.61258451
 C     63  55  51     1.532979800629   109.32644667   120.13890106
 H     72  63  55     1.100732442848   111.42194839   299.58729492
 H     72  63  55     1.099903067017   112.11382316    60.24966307
 H     72  63  55     1.100988930250   110.67404169   179.94937280
 C     62  58  54     1.532773990398   109.45482046   239.51240114
 H     76  62  58     1.100957879821   110.66029709   180.18492445
 H     76  62  58     1.099837105365   112.13353078   299.86481486
 H     76  62  58     1.100712495403   111.41666959    60.54795848
 C     62  58  54     1.525678033621   111.93424810   359.82729605
 H     80  62  58     1.100201735417   112.15303084    60.62040458
 H     80  62  58     1.099896261849   110.07444790   179.90810846
 H     80  62  58     1.100179306147   112.16457118   299.20545236
 C     62  58  54     1.532977766862   109.31912102   120.03871470
 H     84  62  58     1.100731366244   111.41920012   299.54897900
 H     84  62  58     1.099907593265   112.11235094    60.20608939
 H     84  62  58     1.100991367107   110.67686333   179.91260251

---------------------------
INTERNAL COORDINATES (A.U.)
---------------------------
 Au     0   0   0     0.000000000000     0.00000000     0.00000000
 C      1   0   0     5.531684442522     0.00000000     0.00000000
 C      2   1   0     4.532320019680    65.81549074     0.00000000
 C      3   2   1     2.641717312022    90.60575953   179.99078595
 C      4   3   2     2.633733763869   118.81504212     0.05799218
 C      5   4   3     2.633740454033   121.15828711   359.95540582
 C      2   1   3     2.776756823141    75.78356888   179.93660097
 C      7   2   1     2.693866479339   117.62843979     0.00000000
 C      8   7   2     2.633843712958   118.44092369   179.95031649
 C      9   8   7     2.645395971194   120.97661375     0.00000000
 C     10   9   8     2.636921802293   120.27467623     0.00000000
 C     11  10   9     2.631855688918   119.90523517   359.97691601
 H      4   3   2     2.059831290279   120.44672676   180.01975235
 H      5   4   3     2.063395910398   119.42110330   179.95422745
 H      6   5   4     2.059838273317   120.73842611   179.98746992
 H      9   8   7     2.068526404917   119.99193768   180.03470486
 H     10   9   8     2.066457851942   119.84553280   180.01842018
 H     11  10   9     2.064207198050   120.24456594   179.98883070
 H     12  11  10     2.065925175868   119.61019363   180.01710834
 C      3   2   1     2.776737346176   141.59996480     0.00000000
 C     20   3   2     2.651100060800   122.14731056   179.94304263
 C     20   3   2     2.693862151496   117.62988896     0.00000000
 C     21  20   3     2.631850447203   120.18073002   180.06144865
 H     21  20   3     2.065922509690   120.21005789     0.03603702
 C     22  20   3     2.633844634525   118.43988333   179.93574219
 C     23  21  20     2.636920821744   119.90476991     0.00000000
 H     23  21  20     2.064208434022   119.85060596   179.97911569
 H     25  22  20     2.068532415248   119.99189037   180.04757101
 H     26  23  21     2.066457808041   119.88008612   179.97935742
 N      3   2   1     2.553985135117    27.46384452     0.00000000
 C      1   2   3     3.737131896229   155.82004628   180.36687931
 C     31   1   2     2.325121576822   179.75933532    89.84012438
 C     32  31   1     2.692495683759   179.89887180     1.17046107
 C     33  32  31     2.664848863459   121.03964441   222.14773998
 C     33  32  31     2.664932118495   120.97852212    42.08129483
 C     34  33  32     2.623716334462   121.03187151   180.39433731
 H     34  33  32     2.063918964120   119.35636694   359.41868445
 C     35  33  32     2.623587027841   121.03603968   180.59707932
 H     35  33  32     2.063922410232   119.35176602   359.56673242
 C     36  34  33     2.648639517541   120.33643054   359.01042909
 H     36  34  33     2.063386677335   119.92601230   178.18387221
 H     38  35  33     2.063385594794   119.92112405   178.13128372
 C     40  36  34     4.721750811675   135.44970541   152.04653620
 C     43  40  36     4.266811891269    63.13484256    65.86818231
 C     43  40  36     2.640522820441   102.87438107   247.77951294
 C     43  40  36     2.674375451111   136.39349534    65.94348722
 C     44  43  40     2.640509989333   165.89385832     7.54517354
 C     44  43  40     2.674382540475    73.25824707   179.88188110
 C     45  43  40     2.627798292600   117.86768609   179.75826006
 H     45  43  40     2.063193064479   121.68516721     0.19413304
 C     46  43  40     2.649805032016   120.00028386   180.72031108
 C     47  44  48     2.627802022630   117.86838708     1.22359289
 H     47  44  48     2.063188484209   121.68457248   181.65977799
 C     48  44  43     2.649801436318   119.99951455   180.81468325
 C     51  46  43     2.638584969972   120.32684963     0.40150106
 H     49  45  43     2.066712485101   117.91877842   179.92011149
 H     51  46  43     2.063662760555   118.74490311   180.13949279
 C     54  48  44     2.638586083943   120.32824864     0.39899118
 H     52  47  44     2.066704708269   117.91987636   179.92190113
 H     54  48  44     2.063661498437   118.74238607   180.12834135
 N     43  40  36     2.635087465202    27.19166409    65.75115275
 C     58  54  48     2.892246931392   122.78257296   180.44642534
 C     55  51  46     2.892234491345   122.78146575   180.43581303
 C     63  55  51     2.896522035959   109.44794265   239.61191227
 H     64  63  55     2.080511113753   110.66324596   180.21771461
 H     64  63  55     2.078404585276   112.12892251   299.90304617
 H     64  63  55     2.080047599529   111.41470323    60.58008703
 C     63  55  51     2.883110061373   111.93419880   359.92461454
 H     68  63  55     2.078505472883   110.07458716   179.90138560
 H     68  63  55     2.079029530381   112.16763565   299.19656274
 H     68  63  55     2.079086174514   112.15141857    60.61258451
 C     63  55  51     2.896911992022   109.32644667   120.13890106
 H     72  63  55     2.080082863705   111.42194839   299.58729492
 H     72  63  55     2.078515570522   112.11382316    60.24966307
 H     72  63  55     2.080567554651   110.67404169   179.94937280
 C     62  58  54     2.896523067050   109.45482046   239.51240114
 H     76  62  58     2.080508877843   110.66029709   180.18492445
 H     76  62  58     2.078390921064   112.13353078   299.86481486
 H     76  62  58     2.080045168496   111.41666959    60.54795848
 C     62  58  54     2.883113652083   111.93424810   359.82729605
 H     80  62  58     2.079079972003   112.15303084    60.62040458
 H     80  62  58     2.078502710619   110.07444790   179.90810846
 H     80  62  58     2.079037586825   112.16457118   299.20545236
 C     62  58  54     2.896908148759   109.31912102   120.03871470
 H     84  62  58     2.080080829219   111.41920012   299.54897900
 H     84  62  58     2.078524123891   112.11235094    60.20608939
 H     84  62  58     2.080572159645   110.67686333   179.91260251

---------------------
BASIS SET INFORMATION
---------------------
There are 4 groups of distinct atoms

 Group   1 Type Au  : 7s6p5d1f contracted to 6s3p2d1f pattern {211111/411/41/1}
 Group   2 Type C   : 7s4p1d contracted to 3s2p1d pattern {511/31/1}
 Group   3 Type H   : 4s1p contracted to 2s1p pattern {31/1}
 Group   4 Type N   : 7s4p1d contracted to 3s2p1d pattern {511/31/1}

Atom   0Au   basis set group =>   1
Atom   1C    basis set group =>   2
Atom   2C    basis set group =>   2
Atom   3C    basis set group =>   2
Atom   4C    basis set group =>   2
Atom   5C    basis set group =>   2
Atom   6C    basis set group =>   2
Atom   7C    basis set group =>   2
Atom   8C    basis set group =>   2
Atom   9C    basis set group =>   2
Atom  10C    basis set group =>   2
Atom  11C    basis set group =>   2
Atom  12H    basis set group =>   3
Atom  13H    basis set group =>   3
Atom  14H    basis set group =>   3
Atom  15H    basis set group =>   3
Atom  16H    basis set group =>   3
Atom  17H    basis set group =>   3
Atom  18H    basis set group =>   3
Atom  19C    basis set group =>   2
Atom  20C    basis set group =>   2
Atom  21C    basis set group =>   2
Atom  22C    basis set group =>   2
Atom  23H    basis set group =>   3
Atom  24C    basis set group =>   2
Atom  25C    basis set group =>   2
Atom  26H    basis set group =>   3
Atom  27H    basis set group =>   3
Atom  28H    basis set group =>   3
Atom  29N    basis set group =>   4
Atom  30C    basis set group =>   2
Atom  31C    basis set group =>   2
Atom  32C    basis set group =>   2
Atom  33C    basis set group =>   2
Atom  34C    basis set group =>   2
Atom  35C    basis set group =>   2
Atom  36H    basis set group =>   3
Atom  37C    basis set group =>   2
Atom  38H    basis set group =>   3
Atom  39C    basis set group =>   2
Atom  40H    basis set group =>   3
Atom  41H    basis set group =>   3
Atom  42C    basis set group =>   2
Atom  43C    basis set group =>   2
Atom  44C    basis set group =>   2
Atom  45C    basis set group =>   2
Atom  46C    basis set group =>   2
Atom  47C    basis set group =>   2
Atom  48C    basis set group =>   2
Atom  49H    basis set group =>   3
Atom  50C    basis set group =>   2
Atom  51C    basis set group =>   2
Atom  52H    basis set group =>   3
Atom  53C    basis set group =>   2
Atom  54C    basis set group =>   2
Atom  55H    basis set group =>   3
Atom  56H    basis set group =>   3
Atom  57C    basis set group =>   2
Atom  58H    basis set group =>   3
Atom  59H    basis set group =>   3
Atom  60N    basis set group =>   4
Atom  61C    basis set group =>   2
Atom  62C    basis set group =>   2
Atom  63C    basis set group =>   2
Atom  64H    basis set group =>   3
Atom  65H    basis set group =>   3
Atom  66H    basis set group =>   3
Atom  67C    basis set group =>   2
Atom  68H    basis set group =>   3
Atom  69H    basis set group =>   3
Atom  70H    basis set group =>   3
Atom  71C    basis set group =>   2
Atom  72H    basis set group =>   3
Atom  73H    basis set group =>   3
Atom  74H    basis set group =>   3
Atom  75C    basis set group =>   2
Atom  76H    basis set group =>   3
Atom  77H    basis set group =>   3
Atom  78H    basis set group =>   3
Atom  79C    basis set group =>   2
Atom  80H    basis set group =>   3
Atom  81H    basis set group =>   3
Atom  82H    basis set group =>   3
Atom  83C    basis set group =>   2
Atom  84H    basis set group =>   3
Atom  85H    basis set group =>   3
Atom  86H    basis set group =>   3
---------------------------------
AUXILIARY/J BASIS SET INFORMATION
---------------------------------
There are 4 groups of distinct atoms

 Group   1 Type Au  : 11s5p5d3f3g contracted to 8s5p5d2f3g pattern {41111111/11111/11111/21/111}
 Group   2 Type C   : 12s5p4d2f1g contracted to 6s4p3d1f1g pattern {711111/2111/211/2/1}
 Group   3 Type H   : 5s2p1d contracted to 3s1p1d pattern {311/2/1}
 Group   4 Type N   : 12s5p4d2f1g contracted to 6s4p3d1f1g pattern {711111/2111/211/2/1}

Atom   0Au   basis set group =>   1
Atom   1C    basis set group =>   2
Atom   2C    basis set group =>   2
Atom   3C    basis set group =>   2
Atom   4C    basis set group =>   2
Atom   5C    basis set group =>   2
Atom   6C    basis set group =>   2
Atom   7C    basis set group =>   2
Atom   8C    basis set group =>   2
Atom   9C    basis set group =>   2
Atom  10C    basis set group =>   2
Atom  11C    basis set group =>   2
Atom  12H    basis set group =>   3
Atom  13H    basis set group =>   3
Atom  14H    basis set group =>   3
Atom  15H    basis set group =>   3
Atom  16H    basis set group =>   3
Atom  17H    basis set group =>   3
Atom  18H    basis set group =>   3
Atom  19C    basis set group =>   2
Atom  20C    basis set group =>   2
Atom  21C    basis set group =>   2
Atom  22C    basis set group =>   2
Atom  23H    basis set group =>   3
Atom  24C    basis set group =>   2
Atom  25C    basis set group =>   2
Atom  26H    basis set group =>   3
Atom  27H    basis set group =>   3
Atom  28H    basis set group =>   3
Atom  29N    basis set group =>   4
Atom  30C    basis set group =>   2
Atom  31C    basis set group =>   2
Atom  32C    basis set group =>   2
Atom  33C    basis set group =>   2
Atom  34C    basis set group =>   2
Atom  35C    basis set group =>   2
Atom  36H    basis set group =>   3
Atom  37C    basis set group =>   2
Atom  38H    basis set group =>   3
Atom  39C    basis set group =>   2
Atom  40H    basis set group =>   3
Atom  41H    basis set group =>   3
Atom  42C    basis set group =>   2
Atom  43C    basis set group =>   2
Atom  44C    basis set group =>   2
Atom  45C    basis set group =>   2
Atom  46C    basis set group =>   2
Atom  47C    basis set group =>   2
Atom  48C    basis set group =>   2
Atom  49H    basis set group =>   3
Atom  50C    basis set group =>   2
Atom  51C    basis set group =>   2
Atom  52H    basis set group =>   3
Atom  53C    basis set group =>   2
Atom  54C    basis set group =>   2
Atom  55H    basis set group =>   3
Atom  56H    basis set group =>   3
Atom  57C    basis set group =>   2
Atom  58H    basis set group =>   3
Atom  59H    basis set group =>   3
Atom  60N    basis set group =>   4
Atom  61C    basis set group =>   2
Atom  62C    basis set group =>   2
Atom  63C    basis set group =>   2
Atom  64H    basis set group =>   3
Atom  65H    basis set group =>   3
Atom  66H    basis set group =>   3
Atom  67C    basis set group =>   2
Atom  68H    basis set group =>   3
Atom  69H    basis set group =>   3
Atom  70H    basis set group =>   3
Atom  71C    basis set group =>   2
Atom  72H    basis set group =>   3
Atom  73H    basis set group =>   3
Atom  74H    basis set group =>   3
Atom  75C    basis set group =>   2
Atom  76H    basis set group =>   3
Atom  77H    basis set group =>   3
Atom  78H    basis set group =>   3
Atom  79C    basis set group =>   2
Atom  80H    basis set group =>   3
Atom  81H    basis set group =>   3
Atom  82H    basis set group =>   3
Atom  83C    basis set group =>   2
Atom  84H    basis set group =>   3
Atom  85H    basis set group =>   3
Atom  86H    basis set group =>   3
---------------------------------
AUXILIARY/C BASIS SET INFORMATION
---------------------------------
There are 4 groups of distinct atoms

 Group   1 Type Au  : 8s8p7d5f3g1h contracted to 8s8p7d5f3g1h pattern {11111111/11111111/1111111/11111/111/1}
 Group   2 Type C   : 8s6p5d3f contracted to 6s5p4d1f pattern {311111/21111/2111/3}
 Group   3 Type H   : 4s3p2d contracted to 3s2p1d pattern {211/21/2}
 Group   4 Type N   : 8s6p5d3f contracted to 6s5p4d1f pattern {311111/21111/2111/3}

Atom   0Au   basis set group =>   1
Atom   1C    basis set group =>   2
Atom   2C    basis set group =>   2
Atom   3C    basis set group =>   2
Atom   4C    basis set group =>   2
Atom   5C    basis set group =>   2
Atom   6C    basis set group =>   2
Atom   7C    basis set group =>   2
Atom   8C    basis set group =>   2
Atom   9C    basis set group =>   2
Atom  10C    basis set group =>   2
Atom  11C    basis set group =>   2
Atom  12H    basis set group =>   3
Atom  13H    basis set group =>   3
Atom  14H    basis set group =>   3
Atom  15H    basis set group =>   3
Atom  16H    basis set group =>   3
Atom  17H    basis set group =>   3
Atom  18H    basis set group =>   3
Atom  19C    basis set group =>   2
Atom  20C    basis set group =>   2
Atom  21C    basis set group =>   2
Atom  22C    basis set group =>   2
Atom  23H    basis set group =>   3
Atom  24C    basis set group =>   2
Atom  25C    basis set group =>   2
Atom  26H    basis set group =>   3
Atom  27H    basis set group =>   3
Atom  28H    basis set group =>   3
Atom  29N    basis set group =>   4
Atom  30C    basis set group =>   2
Atom  31C    basis set group =>   2
Atom  32C    basis set group =>   2
Atom  33C    basis set group =>   2
Atom  34C    basis set group =>   2
Atom  35C    basis set group =>   2
Atom  36H    basis set group =>   3
Atom  37C    basis set group =>   2
Atom  38H    basis set group =>   3
Atom  39C    basis set group =>   2
Atom  40H    basis set group =>   3
Atom  41H    basis set group =>   3
Atom  42C    basis set group =>   2
Atom  43C    basis set group =>   2
Atom  44C    basis set group =>   2
Atom  45C    basis set group =>   2
Atom  46C    basis set group =>   2
Atom  47C    basis set group =>   2
Atom  48C    basis set group =>   2
Atom  49H    basis set group =>   3
Atom  50C    basis set group =>   2
Atom  51C    basis set group =>   2
Atom  52H    basis set group =>   3
Atom  53C    basis set group =>   2
Atom  54C    basis set group =>   2
Atom  55H    basis set group =>   3
Atom  56H    basis set group =>   3
Atom  57C    basis set group =>   2
Atom  58H    basis set group =>   3
Atom  59H    basis set group =>   3
Atom  60N    basis set group =>   4
Atom  61C    basis set group =>   2
Atom  62C    basis set group =>   2
Atom  63C    basis set group =>   2
Atom  64H    basis set group =>   3
Atom  65H    basis set group =>   3
Atom  66H    basis set group =>   3
Atom  67C    basis set group =>   2
Atom  68H    basis set group =>   3
Atom  69H    basis set group =>   3
Atom  70H    basis set group =>   3
Atom  71C    basis set group =>   2
Atom  72H    basis set group =>   3
Atom  73H    basis set group =>   3
Atom  74H    basis set group =>   3
Atom  75C    basis set group =>   2
Atom  76H    basis set group =>   3
Atom  77H    basis set group =>   3
Atom  78H    basis set group =>   3
Atom  79C    basis set group =>   2
Atom  80H    basis set group =>   3
Atom  81H    basis set group =>   3
Atom  82H    basis set group =>   3
Atom  83C    basis set group =>   2
Atom  84H    basis set group =>   3
Atom  85H    basis set group =>   3
Atom  86H    basis set group =>   3
-------------------------
ECP PARAMETER INFORMATION
-------------------------

 Group 1, Type Au ECP Def2-ECP (replacing 60 core electrons, lmax=3)

Atom   0Au   ECP group =>   1



           ************************************************************
           *        Program running with 8 parallel MPI-processes     *
           *              working on a common directory               *
           ************************************************************
------------------------------------------------------------------------------
                           ORCA GTO INTEGRAL CALCULATION
                           -- RI-GTO INTEGRALS CHOSEN --
------------------------------------------------------------------------------
------------------------------------------------------------------------------
                   ___                                                        
                  /   \      - P O W E R E D   B Y -                         
                 /     \                                                     
                 |  |  |   _    _      __       _____    __    __             
                 |  |  |  | |  | |    /  \     |  _  \  |  |  /  |          
                  \  \/   | |  | |   /    \    | | | |  |  | /  /          
                 / \  \   | |__| |  /  /\  \   | |_| |  |  |/  /          
                |  |  |   |  __  | /  /__\  \  |    /   |      \           
                |  |  |   | |  | | |   __   |  |    \   |  |\   \          
                \     /   | |  | | |  |  |  |  | |\  \  |  | \   \       
                 \___/    |_|  |_| |__|  |__|  |_| \__\ |__|  \__/        
                                                                              
                      - O R C A' S   B I G   F R I E N D -                    
                                      &                                       
                       - I N T E G R A L  F E E D E R -                       
                                                                              
 v1 FN, 2020, v2 2021                                                         
------------------------------------------------------------------------------


Reading SHARK input file Au-alkyne_2_SOS-wPBEPP86_def2SVP.SHARKINP.tmp ... ok
----------------------
SHARK INTEGRAL PACKAGE
----------------------

Number of atoms                             ...     87
Number of basis functions                   ...    885
Number of shells                            ...    411
Maximum angular momentum                    ...      3
Integral batch strategy                     ... SHARK/LIBINT Hybrid
RI-J (if used) integral strategy            ... SPLIT-RIJ (Revised 2003 algorithm where possible)
Printlevel                                  ...      1
Contraction scheme used                     ... SEGMENTED contraction
Coulomb Range Separation                    ... NOT USED
Exchange Range Separation                   ... Long Range
   Mu parameter                             ...  0.180000
   Scaling (regular/separated)              ...  0.700000  0.300000
Finite Nucleus Model                        ... NOT USED
Auxiliary Coulomb fitting basis             ... AVAILABLE
   # of basis functions in Aux-J            ...   2821
   # of shells in Aux-J                     ...    923
   Maximum angular momentum in Aux-J        ...      4
Auxiliary J/K fitting basis                 ... NOT available
Auxiliary Correlation fitting basis         ... AVAILABLE
   # of basis functions in Aux-C            ...   2942
   # of shells in Aux-C                     ...   1018
   Maximum angular momentum in Aux-C        ...      5
Auxiliary 'external' fitting basis          ... NOT available
Integral threshold                          ...     2.500000e-11
Primitive cut-off                           ...     2.500000e-12
Primitive pair pre-selection threshold      ...     2.500000e-12

Calculating pre-screening integrals         ... done (  0.1 sec) Dimension = 411
Organizing shell pair data                  ... done (  0.1 sec)
Shell pair information
Total number of shell pairs                 ...     84666
Shell pairs after pre-screening             ...     33803
Total number of primitive shell pairs       ...    303772
Primitive shell pairs kept                  ...     74319
          la=0 lb=0:  10434 shell pairs
          la=1 lb=0:  12583 shell pairs
          la=1 lb=1:   3897 shell pairs
          la=2 lb=0:   3946 shell pairs
          la=2 lb=1:   2403 shell pairs
          la=2 lb=2:    373 shell pairs
          la=3 lb=0:     91 shell pairs
          la=3 lb=1:     52 shell pairs
          la=3 lb=2:     23 shell pairs
          la=3 lb=3:      1 shell pairs

Calculating one electron integrals          ... done (  0.1 sec)
Calculating ECP integrals                   ... done (  0.6 sec)
Calculating RI/J V-Matrix + Cholesky decomp.... done (  0.5 sec)
Calculating RI/C V-Matrix + Cholesky decomp.... done (  0.5 sec)
Calculating Nuclear repulsion               ... done (  0.0 sec) ENN=   5371.622718108058 Eh

SHARK setup successfully completed in   2.5 seconds

Maximum memory used throughout the entire GTOINT-calculation: 74.9 MB


           ************************************************************
           *        Program running with 8 parallel MPI-processes     *
           *              working on a common directory               *
           ************************************************************
-------------------------------------------------------------------------------
                                 ORCA SCF
-------------------------------------------------------------------------------

------------
SCF SETTINGS
------------
Hamiltonian:
 Density Functional     Method          .... DFT(GTOs)
 Exchange Functional    Exchange        .... LC-PBE
 Correlation Functional Correlation     .... P86
 LDA part of GGA corr.  LDAOpt          .... VWN-5
 Gradients option       PostSCFGGA      .... off
 Hybrid DFT is turned on
   Fraction HF Exchange ScalHFX         ....  0.700000
   Scaling of DF-GGA-X  ScalDFX         ....  0.000000
   Scaling of DF-GGA-C  ScalDFC         ....  0.680000
   Scaling of DF-LDA-C  ScalLDAC        ....  0.680000
   Perturbative correction              ....  0.480000
   Density functional embedding theory  .... OFF
 Long-range corrected/Screened/Range-Separated Hybrid DFT is turned on
   Amount of maximum screened exact exchange              ....  0.300000
   Range separation parameter mu (erf(mu*r12)/r12)        ....  0.180000
 RI-approximation to the Coulomb term is turned on
   Number of AuxJ basis functions       .... 2821
   RIJ-COSX (HFX calculated with COS-X)).... on


General Settings:
 Integral files         IntName         .... Au-alkyne_2_SOS-wPBEPP86_def2SVP
 Hartree-Fock type      HFTyp           .... RHF
 Total Charge           Charge          ....    0
 Multiplicity           Mult            ....    1
 Number of Electrons    NEL             ....  342
 Basis Dimension        Dim             ....  885
 Nuclear Repulsion      ENuc            ....   5371.6227181081 Eh

Convergence Acceleration:
 DIIS                   CNVDIIS         .... on
   Start iteration      DIISMaxIt       ....    12
   Startup error        DIISStart       ....  0.200000
   # of expansion vecs  DIISMaxEq       ....     5
   Bias factor          DIISBfac        ....   1.050
   Max. coefficient     DIISMaxC        ....  10.000
 Trust-Rad. Augm. Hess. CNVTRAH         .... auto
   Auto Start mean grad. ratio tolernc. ....  1.125000
   Auto Start start iteration           ....    20
   Auto Start num. interpolation iter.  ....    10
   Max. Number of Micro iterations      ....    16
   Max. Number of Macro iterations      .... Maxiter - #DIIS iter
   Number of Davidson start vectors     ....     2
   Converg. threshold I  (grad. norm)   ....   1.000e-05
   Converg. threshold II (energy diff.) ....   1.000e-08
   Grad. Scal. Fac. for Micro threshold ....   0.100
   Minimum threshold for Micro iter.    ....   0.010
   NR start threshold (gradient norm)   ....   0.001
   Initial trust radius                 ....   0.400
   Minimum AH scaling param. (alpha)    ....   1.000
   Maximum AH scaling param. (alpha)    .... 1000.000
   Orbital update algorithm             .... Taylor
   White noise on init. David. guess    .... on
   Maximum white noise                  ....   0.010
   Quad. conv. algorithm                .... NR
 SOSCF                  CNVSOSCF        .... off
 Level Shifting         CNVShift        .... on
   Level shift para.    LevelShift      ....    0.2500
   Turn off err/grad.   ShiftErr        ....    0.0010
 Zerner damping         CNVZerner       .... off
 Static damping         CNVDamp         .... on
   Fraction old density DampFac         ....    0.7000
   Max. Damping (<1)    DampMax         ....    0.9800
   Min. Damping (>=0)   DampMin         ....    0.0000
   Turn off err/grad.   DampErr         ....    0.1000
 Fernandez-Rico         CNVRico         .... off

SCF Procedure:
 Maximum # iterations   MaxIter         ....   125
 SCF integral mode      SCFMode         .... Direct
   Integral package                     .... SHARK and LIBINT hybrid scheme
 Reset frequency        DirectResetFreq ....    20
 Integral Threshold     Thresh          ....  2.500e-11 Eh
 Primitive CutOff       TCut            ....  2.500e-12 Eh

Convergence Tolerance:
 Convergence Check Mode ConvCheckMode   .... Total+1el-Energy
 Convergence forced     ConvForced      .... 1
 Energy Change          TolE            ....  1.000e-08 Eh
 1-El. energy change                    ....  1.000e-05 Eh
 DIIS Error             TolErr          ....  5.000e-07


Diagonalization of the overlap matrix:
Smallest eigenvalue                        ... 2.083e-04
Time for diagonalization                   ...    0.136 sec
Threshold for overlap eigenvalues          ... 1.000e-08
Number of eigenvalues below threshold      ... 0
Time for construction of square roots      ...    0.076 sec
Total time needed                          ...    0.215 sec

Time for model grid setup =    1.041 sec

------------------------------
INITIAL GUESS: MODEL POTENTIAL
------------------------------
Loading Hartree-Fock densities                     ... done
  calling /project/ligandum/orca_504_openmpi411/orca Au-alkyne_2_SOS-wPBEPP86_def2SVP_atom79.inp > Au-alkyne_2_SOS-wPBEPP86_def2SVP_atom79.out in order to generate an atomic fitting density for atom 0 (Au with ECP) on-the-fly... 
    atom 0 (Au), assumed electronic state with S=2: 1s2 2s2 2p6 3s2 3p6 4s2 3d10 4p6 5s2 4d10 5p6 6s1 4f14 5d10           ... done
Calculating cut-offs                               ... done
Initializing the effective Hamiltonian             ... done
Setting up the integral package (SHARK)            ... done
Starting the Coulomb interaction                   ... done (   0.6 sec)
Reading the grid                                   ... done
Mapping shells                                     ... done
Starting the XC term evaluation                    ... done (   0.2 sec)
  promolecular density results
     # of electrons  =    401.990707998
     EX              =   -607.814959041
     EC              =     -8.201437062
     EX+EC           =   -616.016396103
Transforming the Hamiltonian                       ... done (   0.1 sec)
Diagonalizing the Hamiltonian                      ... done (   0.1 sec)
Back transforming the eigenvectors                 ... done (   0.0 sec)
Now organizing SCF variables                       ... done
                      ------------------
                      INITIAL GUESS DONE (   7.1 sec)
                      ------------------
-------------------
DFT GRID GENERATION
-------------------

General Integration Accuracy     IntAcc      ... 4.388
Radial Grid Type                 RadialGrid  ... OptM3 with GC (2021)
Angular Grid (max. ang.)         AngularGrid ... 4 (Lebedev-302)
Angular grid pruning method      GridPruning ... 4 (adaptive)
Weight generation scheme         WeightScheme... Becke
Basis function cutoff            BFCut       ... 1.0000e-11
Integration weight cutoff        WCut        ... 1.0000e-14
Angular grids for H and He will be reduced by one unit
Partially contracted basis set               ... off
Rotationally invariant grid construction     ... off

Total number of grid points                  ...   413665
Total number of batches                      ...     6506
Average number of points per batch           ...       63
Average number of grid points per atom       ...     4755
Time for grid setup =    3.934 sec

--------------------
COSX GRID GENERATION
--------------------

GRIDX 1
-------
General Integration Accuracy     IntAcc      ... 3.816
Radial Grid Type                 RadialGrid  ... OptM3 with GC (2021)
Angular Grid (max. ang.)         AngularGrid ... 1 (Lebedev-50)
Angular grid pruning method      GridPruning ... 4 (adaptive)
Weight generation scheme         WeightScheme... Becke
Basis function cutoff            BFCut       ... 1.0000e-11
Integration weight cutoff        WCut        ... 1.0000e-14
Angular grids for H and He will be reduced by one unit
Partially contracted basis set               ... on
Rotationally invariant grid construction     ... off

Total number of grid points                  ...    52245
Total number of batches                      ...      858
Average number of points per batch           ...       60
Average number of grid points per atom       ...      601
UseSFitting                                  ... on

GRIDX 2
-------
General Integration Accuracy     IntAcc      ... 4.020
Radial Grid Type                 RadialGrid  ... OptM3 with GC (2021)
Angular Grid (max. ang.)         AngularGrid ... 2 (Lebedev-110)
Angular grid pruning method      GridPruning ... 4 (adaptive)
Weight generation scheme         WeightScheme... Becke
Basis function cutoff            BFCut       ... 1.0000e-11
Integration weight cutoff        WCut        ... 1.0000e-14
Angular grids for H and He will be reduced by one unit
Partially contracted basis set               ... on
Rotationally invariant grid construction     ... off

Total number of grid points                  ...   113118
Total number of batches                      ...     1811
Average number of points per batch           ...       62
Average number of grid points per atom       ...     1300
UseSFitting                                  ... on

GRIDX 3
-------
General Integration Accuracy     IntAcc      ... 4.338
Radial Grid Type                 RadialGrid  ... OptM3 with GC (2021)
Angular Grid (max. ang.)         AngularGrid ... 3 (Lebedev-194)
Angular grid pruning method      GridPruning ... 4 (adaptive)
Weight generation scheme         WeightScheme... Becke
Basis function cutoff            BFCut       ... 1.0000e-11
Integration weight cutoff        WCut        ... 1.0000e-14
Angular grids for H and He will be reduced by one unit
Partially contracted basis set               ... on
Rotationally invariant grid construction     ... off

Total number of grid points                  ...   245289
Total number of batches                      ...     3876
Average number of points per batch           ...       63
Average number of grid points per atom       ...     2819
UseSFitting                                  ... on

Time for X-Grid setup             =    3.976 sec


--------------------
CPCM SOLVATION MODEL
--------------------
CPCM parameters:
  Epsilon                                         ...      35.6880
  Refrac                                          ...       1.3442
  Rsolv                                           ...       1.3000
  Surface type                                    ... GAUSSIAN VDW
  Epsilon function type                           ...         CPCM
Solvent:                                     ... ACETONITRILE
SMD-CDS solvent descriptors:
  Soln                                       ...    1.3442
  Soln25                                     ...    1.3416
  Sola                                       ...    0.0700
  Solb                                       ...    0.3200
  Solg                                       ...   41.2500
  Solc                                       ...    0.0000
  Solh                                       ...    0.0000
Radii:
 Radius for Au used is    4.1007 Bohr (=   2.1700 Ang.)
 Radius for C  used is    3.4960 Bohr (=   1.8500 Ang.)
 Radius for H  used is    2.2677 Bohr (=   1.2000 Ang.)
 Radius for N  used is    3.5716 Bohr (=   1.8900 Ang.)
Calculating surface                               ...        done! (  0.0s)
GEPOL surface points                              ...         4963
GEPOL Volume                                      ...    4500.8468
GEPOL Surface-area                                ...    2418.3788
Calculating surface distance matrix               ...        done! (  0.1s)
Performing Cholesky decomposition & store         ...        done! (  0.8s)
Overall time for CPCM initialization              ...                 1.0s
--------------
SCF ITERATIONS
--------------
ITER       Energy         Delta-E        Max-DP      RMS-DP      [F,P]     Damp
               ***  Starting incremental Fock matrix formation  ***
  0  -1975.2347281576   0.000000000000 0.16407769  0.00144188  0.4990664 0.7000
  1  -1975.7075953996  -0.472867242050 0.12754804  0.00110279  0.3662915 0.7000
  2  -1975.9747837731  -0.267188373494 0.12251501  0.00075604  0.2665225 0.7000
                               ***Turning on DIIS***
  3  -1976.1394764281  -0.164692654996 0.10292311  0.00052614  0.1915822 0.7000
  4  -1976.2508112461  -0.111334818015 0.08630241  0.00038481  0.1362890 0.7000
  5  -1976.3286201898  -0.077808943690 0.20324413  0.00093758  0.0952549 0.0000
  6  -1976.5123314661  -0.183711276297 0.01278181  0.00006612  0.0061768 0.0000
  7  -1976.5128198005  -0.000488334415 0.00947286  0.00003438  0.0039790 0.0000
  8  -1976.5129507016  -0.000130901052 0.00238083  0.00001600  0.0017649 0.0000
  9  -1976.5129931342  -0.000042432680 0.00248434  0.00001078  0.0007481 0.0000
               *** Restarting incremental Fock matrix formation ***
                                   *** Resetting DIIS ***
 10  -1976.5149445499  -0.001951415685 0.00196957  0.00002928  0.0001840 0.0000
 11  -1976.5149496489  -0.000005098980 0.00035074  0.00000452  0.0001274 0.0000
 12  -1976.5149502126  -0.000000563719 0.00016099  0.00000204  0.0000929 0.0000
 13  -1976.5149504644  -0.000000251785 0.00008229  0.00000063  0.0000345 0.0000
 14  -1976.5149505165  -0.000000052037 0.00003436  0.00000033  0.0000188 0.0000
 15  -1976.5149505471  -0.000000030622 0.00001881  0.00000017  0.0000110 0.0000
 16  -1976.5149505303   0.000000016729 0.00000514  0.00000005  0.0000057 0.0000
 17  -1976.5149505181   0.000000012250 0.00000247  0.00000003  0.0000028 0.0000
                 **** Energy Check signals convergence ****

               *****************************************************
               *                     SUCCESS                       *
               *           SCF CONVERGED AFTER  18 CYCLES          *
               *****************************************************

Old exchange energy                            =   -200.276394685 Eh
New exchange energy                            =   -200.276419638 Eh
Exchange energy change after final integration =     -0.000024954 Eh
Total energy after final integration           =  -1976.514975467 Eh
Final COS-X integration done in                =    67.546 sec

SMD CDS free energy correction energy :                -9.52261     Kcal/mol
Total Energy after SMD CDS correction =             -1976.530150707 Eh

----------------
TOTAL SCF ENERGY
----------------

Total Energy       :        -1976.53015071 Eh          -53784.11973 eV

Components:
Nuclear Repulsion  :         5371.62271811 Eh          146169.28526 eV
Electronic Energy  :        -7348.15286881 Eh         -199953.40500 eV
One Electron Energy:       -13423.80639863 Eh         -365280.34260 eV
Two Electron Energy:         6075.65352981 Eh          165326.93761 eV
Max COSX asymmetry :            0.00004747 Eh               0.00129 eV
CPCM Dielectric    :           -0.05214265 Eh              -1.41887 eV
SMD CDS (Gcds)     :           -0.01517524 Eh              -0.41294 eV

Virial components:
Potential Energy   :        -3845.23035909 Eh         -104634.03756 eV
Kinetic Energy     :         1868.70020838 Eh           50849.91783 eV
Virial Ratio       :            2.05770318


DFT components:
N(Alpha)           :      170.999788129138 electrons
N(Beta)            :      170.999788129138 electrons
N(Total)           :      341.999576258276 electrons
E(X)               :      -70.235002404055 Eh       
E(C)               :       -8.676314083139 Eh       
E(XC)              :      -78.911316487194 Eh       
DFET-embed. en.    :        0.000000000000 Eh       
CPCM Solvation Model Properties:
Surface-charge          :           -0.08888130
Charge-correction       :           -0.00032891 Eh              -0.00895 eV
Free-energy (cav+disp)  :           -0.01517524 Eh              -0.41294 eV

---------------
SCF CONVERGENCE
---------------

  Last Energy change         ...    4.5861e-09  Tolerance :   1.0000e-08
  Last MAX-Density change    ...    0.0000e+00  Tolerance :   1.0000e-07
  Last RMS-Density change    ...    0.0000e+00  Tolerance :   5.0000e-09
  Last DIIS Error            ...    6.6392e-07  Tolerance :   5.0000e-07

             **** THE GBW FILE WAS UPDATED (Au-alkyne_2_SOS-wPBEPP86_def2SVP.gbw) ****
             **** DENSITY Au-alkyne_2_SOS-wPBEPP86_def2SVP.scfp WAS UPDATED ****
             **** ENERGY FILE WAS UPDATED (Au-alkyne_2_SOS-wPBEPP86_def2SVP.en.tmp) ****
             **** THE GBW FILE WAS UPDATED (Au-alkyne_2_SOS-wPBEPP86_def2SVP.gbw) ****
             **** DENSITY Au-alkyne_2_SOS-wPBEPP86_def2SVP.scfp WAS UPDATED ****
----------------
ORBITAL ENERGIES
----------------

  NO   OCC          E(Eh)            E(eV) 
   0   2.0000     -15.210006      -413.8853 
   1   2.0000     -15.189383      -413.3241 
   2   2.0000     -10.957930      -298.1804 
   3   2.0000     -10.957915      -298.1800 
   4   2.0000     -10.933658      -297.5200 
   5   2.0000     -10.918601      -297.1102 
   6   2.0000     -10.918581      -297.1097 
   7   2.0000     -10.915208      -297.0179 
   8   2.0000     -10.907782      -296.8158 
   9   2.0000     -10.896811      -296.5173 
  10   2.0000     -10.896802      -296.5171 
  11   2.0000     -10.895772      -296.4890 
  12   2.0000     -10.895756      -296.4886 
  13   2.0000     -10.890186      -296.3370 
  14   2.0000     -10.890166      -296.3365 
  15   2.0000     -10.888388      -296.2881 
  16   2.0000     -10.888348      -296.2870 
  17   2.0000     -10.887396      -296.2611 
  18   2.0000     -10.887392      -296.2610 
  19   2.0000     -10.886031      -296.2240 
  20   2.0000     -10.886016      -296.2235 
  21   2.0000     -10.882680      -296.1328 
  22   2.0000     -10.882679      -296.1327 
  23   2.0000     -10.880657      -296.0777 
  24   2.0000     -10.878785      -296.0268 
  25   2.0000     -10.878662      -296.0234 
  26   2.0000     -10.878661      -296.0234 
  27   2.0000     -10.878275      -296.0129 
  28   2.0000     -10.878092      -296.0079 
  29   2.0000     -10.878076      -296.0075 
  30   2.0000     -10.877054      -295.9797 
  31   2.0000     -10.877052      -295.9796 
  32   2.0000     -10.877026      -295.9789 
  33   2.0000     -10.877018      -295.9787 
  34   2.0000     -10.876702      -295.9701 
  35   2.0000     -10.876674      -295.9693 
  36   2.0000     -10.875861      -295.9472 
  37   2.0000     -10.875856      -295.9471 
  38   2.0000     -10.875054      -295.9253 
  39   2.0000     -10.875050      -295.9252 
  40   2.0000     -10.872148      -295.8462 
  41   2.0000     -10.849767      -295.2372 
  42   2.0000     -10.849759      -295.2369 
  43   2.0000     -10.849707      -295.2355 
  44   2.0000     -10.849701      -295.2354 
  45   2.0000     -10.848612      -295.2057 
  46   2.0000     -10.848609      -295.2057 
  47   2.0000      -4.660346      -126.8145 
  48   2.0000      -2.747686       -74.7683 
  49   2.0000      -2.739062       -74.5337 
  50   2.0000      -2.722774       -74.0905 
  51   2.0000      -1.241378       -33.7796 
  52   2.0000      -1.237446       -33.6726 
  53   2.0000      -1.107812       -30.1451 
  54   2.0000      -1.097197       -29.8562 
  55   2.0000      -1.084266       -29.5044 
  56   2.0000      -1.083461       -29.4825 
  57   2.0000      -1.080396       -29.3991 
  58   2.0000      -1.042975       -28.3808 
  59   2.0000      -1.039338       -28.2818 
  60   2.0000      -1.032176       -28.0869 
  61   2.0000      -1.029432       -28.0123 
  62   2.0000      -1.000154       -27.2156 
  63   2.0000      -0.982251       -26.7284 
  64   2.0000      -0.968729       -26.3605 
  65   2.0000      -0.967137       -26.3171 
  66   2.0000      -0.951600       -25.8943 
  67   2.0000      -0.951531       -25.8925 
  68   2.0000      -0.948128       -25.7999 
  69   2.0000      -0.940195       -25.5840 
  70   2.0000      -0.934356       -25.4251 
  71   2.0000      -0.920591       -25.0506 
  72   2.0000      -0.907294       -24.6887 
  73   2.0000      -0.873053       -23.7570 
  74   2.0000      -0.867651       -23.6100 
  75   2.0000      -0.867649       -23.6099 
  76   2.0000      -0.867452       -23.6046 
  77   2.0000      -0.859148       -23.3786 
  78   2.0000      -0.845001       -22.9936 
  79   2.0000      -0.838604       -22.8196 
  80   2.0000      -0.809805       -22.0359 
  81   2.0000      -0.804393       -21.8886 
  82   2.0000      -0.798225       -21.7208 
  83   2.0000      -0.787925       -21.4405 
  84   2.0000      -0.777506       -21.1570 
  85   2.0000      -0.768870       -20.9220 
  86   2.0000      -0.764193       -20.7947 
  87   2.0000      -0.759104       -20.6563 
  88   2.0000      -0.749094       -20.3839 
  89   2.0000      -0.723489       -19.6871 
  90   2.0000      -0.720261       -19.5993 
  91   2.0000      -0.707015       -19.2389 
  92   2.0000      -0.701974       -19.1017 
  93   2.0000      -0.695746       -18.9322 
  94   2.0000      -0.678699       -18.4683 
  95   2.0000      -0.676105       -18.3978 
  96   2.0000      -0.669567       -18.2198 
  97   2.0000      -0.666060       -18.1244 
  98   2.0000      -0.642342       -17.4790 
  99   2.0000      -0.639599       -17.4044 
 100   2.0000      -0.635313       -17.2877 
 101   2.0000      -0.632515       -17.2116 
 102   2.0000      -0.628768       -17.1096 
 103   2.0000      -0.614255       -16.7147 
 104   2.0000      -0.613429       -16.6923 
 105   2.0000      -0.609849       -16.5948 
 106   2.0000      -0.604893       -16.4600 
 107   2.0000      -0.599798       -16.3213 
 108   2.0000      -0.598969       -16.2988 
 109   2.0000      -0.596569       -16.2335 
 110   2.0000      -0.587087       -15.9754 
 111   2.0000      -0.584280       -15.8991 
 112   2.0000      -0.581651       -15.8275 
 113   2.0000      -0.581133       -15.8134 
 114   2.0000      -0.580736       -15.8026 
 115   2.0000      -0.577286       -15.7087 
 116   2.0000      -0.575780       -15.6678 
 117   2.0000      -0.570333       -15.5196 
 118   2.0000      -0.569800       -15.5051 
 119   2.0000      -0.568008       -15.4563 
 120   2.0000      -0.562336       -15.3019 
 121   2.0000      -0.556586       -15.1455 
 122   2.0000      -0.556005       -15.1297 
 123   2.0000      -0.555751       -15.1227 
 124   2.0000      -0.555657       -15.1202 
 125   2.0000      -0.546403       -14.8684 
 126   2.0000      -0.542097       -14.7512 
 127   2.0000      -0.535768       -14.5790 
 128   2.0000      -0.530428       -14.4337 
 129   2.0000      -0.529993       -14.4218 
 130   2.0000      -0.523081       -14.2338 
 131   2.0000      -0.522396       -14.2151 
 132   2.0000      -0.518028       -14.0963 
 133   2.0000      -0.515936       -14.0393 
 134   2.0000      -0.509887       -13.8747 
 135   2.0000      -0.503291       -13.6953 
 136   2.0000      -0.501894       -13.6572 
 137   2.0000      -0.501739       -13.6530 
 138   2.0000      -0.500557       -13.6208 
 139   2.0000      -0.493068       -13.4171 
 140   2.0000      -0.489129       -13.3099 
 141   2.0000      -0.488091       -13.2816 
 142   2.0000      -0.487115       -13.2551 
 143   2.0000      -0.486098       -13.2274 
 144   2.0000      -0.481604       -13.1051 
 145   2.0000      -0.480200       -13.0669 
 146   2.0000      -0.478934       -13.0325 
 147   2.0000      -0.466922       -12.7056 
 148   2.0000      -0.465086       -12.6556 
 149   2.0000      -0.460394       -12.5280 
 150   2.0000      -0.449587       -12.2339 
 151   2.0000      -0.448918       -12.2157 
 152   2.0000      -0.448890       -12.2149 
 153   2.0000      -0.445065       -12.1108 
 154   2.0000      -0.440369       -11.9830 
 155   2.0000      -0.436389       -11.8748 
 156   2.0000      -0.426091       -11.5945 
 157   2.0000      -0.422803       -11.5051 
 158   2.0000      -0.416570       -11.3355 
 159   2.0000      -0.391610       -10.6563 
 160   2.0000      -0.387174       -10.5355 
 161   2.0000      -0.364569        -9.9204 
 162   2.0000      -0.360661        -9.8141 
[...]
   168a -> 179a  :     0.030898 
   169a -> 178a  :     0.013663 
   169a -> 183a  :     0.018298 
   170a -> 171a  :     0.031163 
   170a -> 174a  :     0.014678 
   170a -> 176a  :     0.014537 

STATE 36:  E=   0.229028 au      6.232 eV    50265.8 cm**-1 <S**2> =   0.000000
   156a -> 171a  :     0.014922 
   157a -> 172a  :     0.016782 
   160a -> 171a  :     0.082803 
   160a -> 176a  :     0.063277 
   160a -> 191a  :     0.010290 
   162a -> 176a  :     0.016343 
   163a -> 171a  :     0.018463 
   163a -> 173a  :     0.019815 
   163a -> 176a  :     0.163934 
   163a -> 180a  :     0.017772 
   163a -> 182a  :     0.015848 
   164a -> 171a  :     0.025920 
   166a -> 172a  :     0.056698 
   166a -> 179a  :     0.032940 
   167a -> 173a  :     0.015928 
   168a -> 172a  :     0.019401 
   168a -> 179a  :     0.159156 
   168a -> 185a  :     0.014510 

STATE 37:  E=   0.206708 au      5.625 eV    45367.2 cm**-1 <S**2> =   0.000000
   149a -> 171a  :     0.014138 
   158a -> 172a  :     0.019220 
   162a -> 172a  :     0.023523 
   163a -> 172a  :     0.023537 
   163a -> 179a  :     0.010151 
   164a -> 172a  :     0.057350 
   164a -> 179a  :     0.031414 
   167a -> 172a  :     0.078928 
   167a -> 179a  :     0.012721 
   170a -> 172a  :     0.656173 

STATE 38:  E=   0.226621 au      6.167 eV    49737.6 cm**-1 <S**2> =   0.000000
   134a -> 176a  :     0.013384 
   149a -> 176a  :     0.042022 
   160a -> 179a  :     0.051561 
   162a -> 172a  :     0.013357 
   162a -> 179a  :     0.091628 
   163a -> 172a  :     0.019323 
   163a -> 175a  :     0.034927 
   163a -> 179a  :     0.146091 
   164a -> 172a  :     0.031609 
   164a -> 175a  :     0.013984 
   164a -> 179a  :     0.157528 
   167a -> 179a  :     0.178114 
   170a -> 172a  :     0.050400 
   170a -> 179a  :     0.024206 

STATE 39:  E=   0.218215 au      5.938 eV    47892.7 cm**-1 <S**2> =   0.000000
   159a -> 178a  :     0.017379 
   165a -> 174a  :     0.032373 
   169a -> 171a  :     0.730936 
   169a -> 173a  :     0.018072 
   169a -> 181a  :     0.118228 
   169a -> 182a  :     0.028864 

STATE 40:  E=   0.235069 au      6.397 eV    51591.8 cm**-1 <S**2> =   0.000000
   156a -> 171a  :     0.048726 
   158a -> 171a  :     0.036151 
   160a -> 171a  :     0.074330 
   160a -> 173a  :     0.011778 
   160a -> 176a  :     0.034397 
   160a -> 182a  :     0.011016 
   161a -> 177a  :     0.080189 
   162a -> 171a  :     0.019530 
   163a -> 176a  :     0.038684 
   163a -> 180a  :     0.015296 
   164a -> 171a  :     0.027477 
   164a -> 176a  :     0.019631 
   164a -> 182a  :     0.018991 
   166a -> 172a  :     0.079586 
   167a -> 171a  :     0.015741 
   167a -> 173a  :     0.046676 
   167a -> 174a  :     0.011298 
   168a -> 172a  :     0.016580 
   168a -> 179a  :     0.140733 
   169a -> 183a  :     0.011674 
   170a -> 181a  :     0.035255 


-------------------------
TD-DFT-EXCITATION SPECTRA
-------------------------

Center of mass = ( -0.7146, -0.0002, -0.0012)
Calculating the Dipole integrals                  ... done
Transforming integrals                            ... done
Calculating the Linear Momentum integrals         ... done
Transforming integrals                            ... done
Calculating angular momentum integrals            ... done
Transforming integrals                            ... done

-----------------------------------------------------------------------------
         ABSORPTION SPECTRUM VIA TRANSITION ELECTRIC DIPOLE MOMENTS
-----------------------------------------------------------------------------
State   Energy    Wavelength  fosc         T2        TX        TY        TZ  
        (cm-1)      (nm)                 (au**2)    (au)      (au)      (au) 
-----------------------------------------------------------------------------
   1   28920.6    345.8   0.109590620   1.24750   0.00018  -1.11690   0.00578
   2   33841.9    295.5   1.032462916  10.04374   3.16918   0.00268   0.00223
   3   31833.5    314.1   0.000914522   0.00946  -0.09718  -0.00099  -0.00345
   4   36703.3    272.5   0.299189707   2.68359   1.63812  -0.00099  -0.01274
   5   37159.4    269.1   0.318321200   2.82015   0.00161  -1.67819  -0.06195
   6   34633.5    288.7   0.233929384   2.22363   1.49113   0.01327   0.00114
   7   34518.6    289.7   0.385399340   3.67564   0.01102  -1.91716  -0.00037
   8   35158.9    284.4   0.001551558   0.01453  -0.12046   0.00292   0.00282
   9   37913.6    263.8   0.248463186   2.15746  -0.01345   1.46793   0.04963
  10   35466.8    282.0   0.014006879   0.13002  -0.00346   0.33867  -0.12372
  11   42556.0    235.0   0.022563797   0.17455   0.41708   0.02434   0.00180
  12   41630.5    240.2   0.002758868   0.02182   0.14701   0.01428   0.00036
  13   39879.7    250.8   0.226381853   1.86881   0.00020  -1.36307  -0.10414
  14   42842.8    233.4   0.007386886   0.05676   0.23793  -0.01187  -0.00311
  15   41574.5    240.5   0.015655314   0.12397   0.35208  -0.00162  -0.00190
  16   39735.7    251.7   0.013257084   0.10984  -0.00245   0.31481  -0.10355
  17   42048.9    237.8   0.023994387   0.18786   0.00023  -0.42808  -0.06786
  18   44566.6    224.4   0.011414388   0.08432  -0.29037   0.00082   0.00092
  19   44440.0    225.0   0.255540020   1.89304   0.00130   1.37493  -0.05117
  20   44193.2    226.3   0.808283454   6.02121  -0.00298  -2.45375   0.01725
  21   43651.5    229.1   1.561571206  11.77710  -0.00111   3.42573   0.20368
  22   45529.1    219.6   0.740680636   5.35572  -2.31418   0.01165  -0.01186
  23   46013.6    217.3   0.163444103   1.16939  -0.02709  -1.01019   0.38493
  24   49210.2    203.2   0.016342397   0.10933   0.33064  -0.00035   0.00225
  25   47154.0    212.1   0.089726122   0.62644  -0.79133   0.01463  -0.00507
  26   46607.2    214.6   0.018731406   0.13231   0.04163   0.35427  -0.07121
  27   46713.2    214.1   0.288567815   2.03369  -0.00692   1.13079  -0.86888
  28   51590.2    193.8   0.021242195   0.13555   0.36817   0.00135  -0.00022
  29   50438.0    198.3   0.133298628   0.87005  -0.93273  -0.00647   0.00523
  30   45877.1    218.0   0.000178574   0.00128   0.03350   0.01138  -0.00545
  31   48285.6    207.1   0.009942154   0.06779  -0.00638  -0.23484   0.11223
  32   48776.0    205.0   0.345023792   2.32873   0.01189  -1.52558   0.03436
  33   48541.9    206.0   0.252173543   1.71025   1.30771   0.00720  -0.00972
  34   49793.3    200.8   0.145546819   0.96229  -0.98096   0.00088   0.00160
  35   50174.0    199.3   0.902749278   5.92330   2.43376   0.00694  -0.00713
  36   50265.8    198.9   0.994063987   6.51054   2.55152  -0.00473  -0.01660
  37   45367.2    220.4   0.010398758   0.07546   0.00341   0.24844   0.11715
  38   49737.6    201.1   0.009683212   0.06409   0.00578  -0.00975   0.25291
  39   47892.7    208.8   0.026813131   0.18431   0.00011  -0.42801   0.03347
  40   51591.8    193.8   0.061789877   0.39429  -0.62777   0.00434  -0.01294

-----------------------------------------------------------------------------
         ABSORPTION SPECTRUM VIA TRANSITION VELOCITY DIPOLE MOMENTS
-----------------------------------------------------------------------------
State   Energy    Wavelength   fosc        P2         PX        PY        PZ  
        (cm-1)      (nm)                 (au**2)     (au)      (au)      (au) 
-----------------------------------------------------------------------------
   1   28920.6    345.8   0.140979117   0.02787  -0.00002   0.16693  -0.00078
   2   33841.9    295.5   1.198022838   0.27709  -0.52640  -0.00042  -0.00041
   3   31833.5    314.1   0.003365958   0.00073   0.02705   0.00019   0.00065
   4   36703.3    272.5   0.325425406   0.08163  -0.28571   0.00017   0.00222
   5   37159.4    269.1   0.339642833   0.08626  -0.00028   0.29348   0.01118
   6   34633.5    288.7   0.296785143   0.07025  -0.26504  -0.00234  -0.00020
   7   34518.6    289.7   0.494367518   0.11663  -0.00200   0.34151   0.00038
   8   35158.9    284.4   0.002375892   0.00057   0.02388  -0.00056  -0.00055
   9   37913.6    263.8   0.307557084   0.07969   0.00256  -0.28204  -0.01197
  10   35466.8    282.0   0.022970794   0.00557   0.00066  -0.06806   0.03058
  11   42556.0    235.0   0.022828147   0.00664  -0.08134  -0.00483  -0.00038
  12   41630.5    240.2   0.002579780   0.00073  -0.02694  -0.00284  -0.00012
  13   39879.7    250.8   0.296289524   0.08076  -0.00008   0.28338   0.02121
  14   42842.8    233.4   0.005291703   0.00155  -0.03928   0.00245   0.00051
  15   41574.5    240.5   0.016495043   0.00469  -0.06846   0.00033   0.00036
  16   39735.7    251.7   0.018889423   0.00513   0.00053  -0.06665   0.02621
  17   42048.9    237.8   0.030974353   0.00890   0.00003   0.09260   0.01810
  18   44566.6    224.4   0.013956678   0.00425   0.06520  -0.00017  -0.00020
  19   44440.0    225.0   0.282486445   0.08580  -0.00012  -0.29238   0.01774
  20   44193.2    226.3   0.921508274   0.27833   0.00068   0.52757  -0.00179
  21   43651.5    229.1   1.908342225   0.56933   0.00024  -0.75317  -0.04536
  22   45529.1    219.6   0.907476370   0.28238   0.53138  -0.00267   0.00280
  23   46013.6    217.3   0.200033453   0.06291   0.00619   0.23434  -0.08917
  24   49210.2    203.2   0.023019190   0.00774  -0.08799   0.00011  -0.00023
  25   47154.0    212.1   0.106188921   0.03422   0.18496  -0.00340   0.00062
  26   46607.2    214.6   0.021726821   0.00692  -0.01004  -0.08254   0.00270
  27   46713.2    214.1   0.353017108   0.11270   0.00164  -0.26349   0.20803
  28   51590.2    193.8   0.021930121   0.00773  -0.08793  -0.00029   0.00021
  29   50438.0    198.3   0.145015742   0.04999   0.22357   0.00154  -0.00131
  30   45877.1    218.0   0.000236976   0.00007  -0.00811  -0.00264   0.00124
  31   48285.6    207.1   0.010849563   0.00358   0.00151   0.05410  -0.02553
  32   48776.0    205.0   0.396176899   0.13207  -0.00279   0.36327  -0.00979
  33   48541.9    206.0   0.282379954   0.09368  -0.30606  -0.00172   0.00231
  34   49793.3    200.8   0.155160882   0.05280   0.22979  -0.00024  -0.00038
  35   50174.0    199.3   1.003488447   0.34411  -0.58660  -0.00171   0.00175
  36   50265.8    198.9   1.132073544   0.38891  -0.62362   0.00114   0.00406
  37   45367.2    220.4   0.013393291   0.00415  -0.00083  -0.05914  -0.02557
  38   49737.6    201.1   0.012566137   0.00427  -0.00145   0.00208  -0.06531
  39   47892.7    208.8   0.030406182   0.00995  -0.00001   0.09939  -0.00856
  40   51591.8    193.8   0.068325431   0.02409   0.15518  -0.00108   0.00317

-------------------------------------------------------------------
                             CD SPECTRUM
-------------------------------------------------------------------
State  Energy     Wavelength     R         MX        MY        MZ   
       (cm-1)       (nm)     (1e40*cgs)   (au)      (au)      (au)  
-------------------------------------------------------------------
   1   28920.6    345.8     -5.32389   0.01318   0.02288   2.46777
   2   33841.9    295.5    -65.74052  -0.04399  -0.01326   0.00034
   3   31833.5    314.1      1.61456  -0.03519   0.00163  -0.00175
   4   36703.3    272.5     -0.39369  -0.00051  -0.00991   0.00055
   5   37159.4    269.1     19.85103  -0.00124   0.03981  -1.75821
   6   34633.5    288.7     20.32378   0.02898  -0.00652  -0.01448
   7   34518.6    289.7    -10.90839  -0.00404   0.01182   1.16181
   8   35158.9    284.4      0.88535  -0.01564   0.00156  -0.00384
   9   37913.6    263.8    -41.17045  -0.00031  -0.01144  -1.42133
  10   35466.8    282.0     36.16946   0.00127   0.03126  -0.53457
  11   42556.0    235.0     -1.63870  -0.00811  -0.00191  -0.02649
  12   41630.5    240.2      3.92657   0.05674  -0.00050  -0.01782
  13   39879.7    250.8     53.64919  -0.00047   0.05946  -1.87108
  14   42842.8    233.4     15.74558   0.14048   0.00036   0.00687
  15   41574.5    240.5     -0.06537  -0.00039  -0.00155   0.00131
  16   39735.7    251.7     16.58358  -0.00000   0.00626  -0.32065
  17   42048.9    237.8     -9.76490   0.00019  -0.02008   0.43188
  18   44566.6    224.4     13.92768  -0.10175   0.00183  -0.00606
  19   44440.0    225.0    -52.58048   0.00216  -0.13265  -1.38483
  20   44193.2    226.3     37.52873   0.00038  -0.00605   3.75350
  21   43651.5    229.1     81.97196   0.00261  -0.13294   3.08953
  22   45529.1    219.6    -30.08067   0.02767   0.01754  -0.00209
  23   46013.6    217.3     77.40940  -0.00669  -0.14986   0.03280
  24   49210.2    203.2      7.50156   0.04809  -0.00136   0.00445
  25   47154.0    212.1      4.91620  -0.01307   0.00331  -0.00776
  26   46607.2    214.6      0.95195   0.00356  -0.02471  -0.14919
  27   46713.2    214.1    -265.62822   0.00499   0.34292   1.09470
  28   51590.2    193.8      2.26026   0.01302   0.00048   0.00363
  29   50438.0    198.3     40.71420  -0.09266   0.00426  -0.00748
  30   45877.1    218.0     -1.42285  -0.10300  -0.00108  -0.08156
  31   48285.6    207.1     91.50768   0.00888   0.02341   1.77901
  32   48776.0    205.0     64.40017   0.00691  -0.03172   2.56452
  33   48541.9    206.0    -12.16317  -0.01976  -0.01000  -0.01196
  34   49793.3    200.8     16.19771  -0.03503   0.00539  -0.00575
  35   50174.0    199.3     15.76800   0.01377  -0.01583  -0.00547
  36   50265.8    198.9    -98.49677  -0.08189  -0.02137   0.00527
  37   45367.2    220.4    -12.82960  -0.00012   0.03404  -0.30447
  38   49737.6    201.1      6.30718  -0.00020   0.19329   0.06035
  39   47892.7    208.8    -17.86480   0.00231   0.00876  -1.02009
  40   51591.8    193.8    -24.63877   0.08336  -0.00229  -0.00633

-------------------------------------------------------------------
         CD SPECTRUM VIA TRANSITION VELOCITY DIPOLE MOMENTS        
-------------------------------------------------------------------
State  Energy     Wavelength     R         MX        MY        MZ   
       (cm-1)       (nm)     (1e40*cgs)   (au)      (au)      (au)  
-------------------------------------------------------------------
   1   28920.6    345.8     -6.82229   0.01318   0.02288   2.46777
   2   33841.9    295.5    -70.81464  -0.04399  -0.01326   0.00034
   3   31833.5    314.1      3.09731  -0.03519   0.00163  -0.00175
   4   36703.3    272.5     -0.41058  -0.00051  -0.00991   0.00055
   5   37159.4    269.1     22.19394  -0.00124   0.03981  -1.75821
   6   34633.5    288.7     22.89230   0.02898  -0.00652  -0.01448
   7   34518.6    289.7    -13.44666  -0.00404   0.01182   1.16181
   8   35158.9    284.4      1.09563  -0.01564   0.00156  -0.00384
   9   37913.6    263.8    -55.24654  -0.00031  -0.01144  -1.42133
  10   35466.8    282.0     53.89298   0.00127   0.03126  -0.53457
  11   42556.0    235.0     -1.65056  -0.00811  -0.00191  -0.02649
  12   41630.5    240.2      3.79125   0.05674  -0.00050  -0.01782
  13   39879.7    250.8     59.24242  -0.00047   0.05946  -1.87108
  14   42842.8    233.4     13.31700   0.14048   0.00036   0.00687
  15   41574.5    240.5     -0.06702  -0.00039  -0.00155   0.00131
  16   39735.7    251.7     22.96797  -0.00000   0.00626  -0.32065
  17   42048.9    237.8    -14.66154   0.00019  -0.02008   0.43188
  18   44566.6    224.4     15.40086  -0.10175   0.00183  -0.00606
  19   44440.0    225.0    -33.11409   0.00216  -0.13265  -1.38483
  20   44193.2    226.3     23.16667   0.00038  -0.00605   3.75350
  21   43651.5    229.1     94.84109   0.00261  -0.13294   3.08953
  22   45529.1    219.6    -33.29578   0.02767   0.01754  -0.00209
  23   46013.6    217.3     85.64207  -0.00669  -0.14986   0.03280
  24   49210.2    203.2      8.89982   0.04809  -0.00136   0.00445
  25   47154.0    212.1      5.33855  -0.01307   0.00331  -0.00776
  26   46607.2    214.6     -3.55464   0.00356  -0.02471  -0.14919
  27   46713.2    214.1    -304.31044   0.00499   0.34292   1.09470
  28   51590.2    193.8      2.29539   0.01302   0.00048   0.00363
  29   50438.0    198.3     42.46511  -0.09266   0.00426  -0.00748
  30   45877.1    218.0     -1.66164  -0.10300  -0.00108  -0.08156
  31   48285.6    207.1     94.57917   0.00888   0.02341   1.77901
  32   48776.0    205.0     77.74468   0.00691  -0.03172   2.56452
  33   48541.9    206.0    -12.87087  -0.01976  -0.01000  -0.01196
  34   49793.3    200.8     16.72439  -0.03503   0.00539  -0.00575
  35   50174.0    199.3     16.62380   0.01377  -0.01583  -0.00547
  36   50265.8    198.9    -105.11257  -0.08189  -0.02137   0.00527
  37   45367.2    220.4    -13.16736  -0.00012   0.03404  -0.30447
  38   49737.6    201.1      7.36367  -0.00020   0.19329   0.06035
  39   47892.7    208.8    -20.75683   0.00231   0.00876  -1.02009
  40   51591.8    193.8    -25.90958   0.08336  -0.00229  -0.00633

Total run time:    10665.328 sec

           *** ORCA-CIS/TD-DFT FINISHED WITHOUT ERROR ***

Maximum memory used throughout the entire CIS-calculation: 5029.3 MB

-----------------------
CIS/TD-DFT TOTAL ENERGY
-----------------------

    E(SCF)  =  -1976.530150707 Eh
    DE(CIS) =      0.131771908 Eh (Root  1)
    ----------------------------- ---------
    E(tot)  =  -1976.398378798 Eh


-------------------------   --------------------
FINAL SINGLE POINT ENERGY     -1976.398378798500
-------------------------   --------------------


                            ***************************************
                            *     ORCA property calculations      *
                            ***************************************


  WARNING: The energy has been calculated at the MP2 level but the densities
           used in the property calculations are still SCF densities
           MP2 response densities have not been calculated 
           use %mp2 Density relaxed end
           or  %mp2 Density unrelaxed end

                                    ---------------------
                                    Active property flags
                                    ---------------------
   (+) Dipole Moment


------------------------------------------------------------------------------
                       ORCA ELECTRIC PROPERTIES CALCULATION
------------------------------------------------------------------------------

Dipole Moment Calculation                       ... on
Quadrupole Moment Calculation                   ... off
Polarizability Calculation                      ... off
GBWName                                         ... Au-alkyne_2_SOS-wPBEPP86_def2SVP.gbw
Electron density                                ... Au-alkyne_2_SOS-wPBEPP86_def2SVP.scfp
The origin for moment calculation is the CENTER OF MASS  = (-0.714600, -0.000155 -0.001243)

-------------
DIPOLE MOMENT
-------------
                                X             Y             Z
Electronic contribution:   -764.77835      -0.12557      -1.23392
Nuclear contribution   :    760.98124       0.12762       1.26625
                        -----------------------------------------
Total Dipole Moment    :     -3.79710       0.00205       0.03233
                        -----------------------------------------
Magnitude (a.u.)       :      3.79724
Magnitude (Debye)      :      9.65182



--------------------
Rotational spectrum 
--------------------
 
Rotational constants in cm-1:     0.003106     0.000590     0.000500 
Rotational constants in MHz :    93.110247    17.673572    14.995213 

 Dipole components along the rotational axes: 
x,y,z [a.u.] :    -3.797102     0.002078     0.032403 
x,y,z [Debye]:    -9.651466     0.005283     0.082363 

 

Timings for individual modules:

Sum of individual times         ...    11602.320 sec (= 193.372 min)
GTO integral calculation        ...        3.330 sec (=   0.056 min)   0.0 %
SCF iterations                  ...      493.355 sec (=   8.223 min)   4.3 %
MP2 module                      ...      437.505 sec (=   7.292 min)   3.8 %
CIS module                      ...    10668.130 sec (= 177.802 min)  91.9 %
                             ****ORCA TERMINATED NORMALLY****
TOTAL RUN TIME: 0 days 3 hours 13 minutes 25 seconds 596 msec
