
                                 *****************
                                 * O   R   C   A *
                                 *****************

                                            #,                                       
                                            ###                                      
                                            ####                                     
                                            #####                                    
                                            ######                                   
                                           ########,                                 
                                     ,,################,,,,,                         
                               ,,#################################,,                 
                          ,,##########################################,,             
                       ,#########################################, ''#####,          
                    ,#############################################,,   '####,        
                  ,##################################################,,,,####,       
                ,###########''''           ''''###############################       
              ,#####''   ,,,,##########,,,,          '''####'''          '####       
            ,##' ,,,,###########################,,,                        '##       
           ' ,,###''''                  '''############,,,                           
         ,,##''                                '''############,,,,        ,,,,,,###''
      ,#''                                            '''#######################'''  
     '                                                          ''''####''''         
             ,#######,   #######,   ,#######,      ##                                
            ,#'     '#,  ##    ##  ,#'     '#,    #''#        ######   ,####,        
            ##       ##  ##   ,#'  ##            #'  '#       #        #'  '#        
            ##       ##  #######   ##           ,######,      #####,   #    #        
            '#,     ,#'  ##    ##  '#,     ,#' ,#      #,         ##   #,  ,#        
             '#######'   ##     ##  '#######'  #'      '#     #####' # '####'        



                  #######################################################
                  #                        -***-                        #
                  #          Department of theory and spectroscopy      #
                  #    Directorship and core code : Frank Neese         #
                  #        Max Planck Institute fuer Kohlenforschung    #
                  #                Kaiser Wilhelm Platz 1               #
                  #                 D-45470 Muelheim/Ruhr               #
                  #                      Germany                        #
                  #                                                     #
                  #                  All rights reserved                #
                  #                        -***-                        #
                  #######################################################


                         Program Version 5.0.4 -  RELEASE  -


 With contributions from (in alphabetic order):
   Daniel Aravena         : Magnetic Suceptibility
   Michael Atanasov       : Ab Initio Ligand Field Theory (pilot matlab implementation)
   Alexander A. Auer      : GIAO ZORA, VPT2 properties, NMR spectrum
   Ute Becker             : Parallelization
   Giovanni Bistoni       : ED, misc. LED, open-shell LED, HFLD
   Martin Brehm           : Molecular dynamics
   Dmytro Bykov           : SCF Hessian
   Vijay G. Chilkuri      : MRCI spin determinant printing, contributions to CSF-ICE
   Dipayan Datta          : RHF DLPNO-CCSD density
   Achintya Kumar Dutta   : EOM-CC, STEOM-CC
   Dmitry Ganyushin       : Spin-Orbit,Spin-Spin,Magnetic field MRCI
   Miquel Garcia          : C-PCM and meta-GGA Hessian, CC/C-PCM, Gaussian charge scheme
   Yang Guo               : DLPNO-NEVPT2, F12-NEVPT2, CIM, IAO-localization
   Andreas Hansen         : Spin unrestricted coupled pair/coupled cluster methods
   Benjamin Helmich-Paris : MC-RPA, TRAH-SCF, COSX integrals
   Lee Huntington         : MR-EOM, pCC
   Robert Izsak           : Overlap fitted RIJCOSX, COSX-SCS-MP3, EOM
   Marcus Kettner         : VPT2
   Christian Kollmar      : KDIIS, OOCD, Brueckner-CCSD(T), CCSD density, CASPT2, CASPT2-K
   Simone Kossmann        : Meta GGA functionals, TD-DFT gradient, OOMP2, MP2 Hessian
   Martin Krupicka        : Initial AUTO-CI
   Lucas Lang             : DCDCAS
   Marvin Lechner         : AUTO-CI (C++ implementation), FIC-MRCC
   Dagmar Lenk            : GEPOL surface, SMD
   Dimitrios Liakos       : Extrapolation schemes; Compound Job, initial MDCI parallelization
   Dimitrios Manganas     : Further ROCIS development; embedding schemes
   Dimitrios Pantazis     : SARC Basis sets
   Anastasios Papadopoulos: AUTO-CI, single reference methods and gradients
   Taras Petrenko         : DFT Hessian,TD-DFT gradient, ASA, ECA, R-Raman, ABS, FL, XAS/XES, NRVS
   Peter Pinski           : DLPNO-MP2, DLPNO-MP2 Gradient
   Christoph Reimann      : Effective Core Potentials
   Marius Retegan         : Local ZFS, SOC
   Christoph Riplinger    : Optimizer, TS searches, QM/MM, DLPNO-CCSD(T), (RO)-DLPNO pert. Triples
   Tobias Risthaus        : Range-separated hybrids, TD-DFT gradient, RPA, STAB
   Michael Roemelt        : Original ROCIS implementation
   Masaaki Saitow         : Open-shell DLPNO-CCSD energy and density
   Barbara Sandhoefer     : DKH picture change effects
   Avijit Sen             : IP-ROCIS
   Kantharuban Sivalingam : CASSCF convergence, NEVPT2, FIC-MRCI
   Bernardo de Souza      : ESD, SOC TD-DFT
   Georgi Stoychev        : AutoAux, RI-MP2 NMR, DLPNO-MP2 response
   Willem Van den Heuvel  : Paramagnetic NMR
   Boris Wezisla          : Elementary symmetry handling
   Frank Wennmohs         : Technical directorship


 We gratefully acknowledge several colleagues who have allowed us to
 interface, adapt or use parts of their codes:
   Stefan Grimme, W. Hujo, H. Kruse, P. Pracht,  : VdW corrections, initial TS optimization,
                  C. Bannwarth, S. Ehlert          DFT functionals, gCP, sTDA/sTD-DF
   Ed Valeev, F. Pavosevic, A. Kumar             : LibInt (2-el integral package), F12 methods
   Garnet Chan, S. Sharma, J. Yang, R. Olivares  : DMRG
   Ulf Ekstrom                                   : XCFun DFT Library
   Mihaly Kallay                                 : mrcc  (arbitrary order and MRCC methods)
   Jiri Pittner, Ondrej Demel                    : Mk-CCSD
   Frank Weinhold                                : gennbo (NPA and NBO analysis)
   Christopher J. Cramer and Donald G. Truhlar   : smd solvation model
   Lars Goerigk                                  : TD-DFT with DH, B97 family of functionals
   V. Asgeirsson, H. Jonsson                     : NEB implementation
   FAccTs GmbH                                   : IRC, NEB, NEB-TS, DLPNO-Multilevel, CI-OPT
                                                   MM, QMMM, 2- and 3-layer-ONIOM, Crystal-QMMM,
                                                   LR-CPCM, SF, NACMEs, symmetry and pop. for TD-DFT,
                                                   nearIR, NL-DFT gradient (VV10), updates on ESD,
                                                   ML-optimized integration grids
   S Lehtola, MJT Oliveira, MAL Marques          : LibXC Library
   Liviu Ungur et al                             : ANISO software


 Your calculation uses the libint2 library for the computation of 2-el integrals
 For citations please refer to: http://libint.valeyev.net

 Your ORCA version has been built with support for libXC version: 5.1.0
 For citations please refer to: https://tddft.org/programs/libxc/

 This ORCA versions uses:
   CBLAS   interface :  Fast vector & matrix operations
   LAPACKE interface :  Fast linear algebra routines
   SCALAPACK package :  Parallel linear algebra routines
   Shared memory     :  Shared parallel matrices
   BLAS/LAPACK       :  OpenBLAS 0.3.15  USE64BITINT DYNAMIC_ARCH NO_AFFINITY Zen SINGLE_THREADED
        Core in use  :  Zen
   Copyright (c) 2011-2014, The OpenBLAS Project


Your calculation utilizes the SMD solvation module
Please cite in your paper:
A.V. Marenich, C.J. Cramer, D.G. Truhlar J. Phys. Chem. B, 113, (2009), 6378 

================================================================================

cite the ECPs for Au [Def2-ECP] as follows:
Ce-Yb(ecp-28): M. Dolg, H. Stoll, H.Preuss, J. Chem. Phys., 1989, 90, 1730-1734.
Y-Cd(ecp-28), Hf-Hg(ecp-46): D. Andrae,U. Haeussermann, M. Dolg, H. Stoll, H. Preuss, Theor. Chim. Acta, 1990, 77, 123-141.
In-Sb(ecp-28), Tl-Bi(ecp-46): B. Metz, H. Stoll, M. Dolg, J. Chem. Phys., 2000, 113, 2563-2569.
Te-Xe(ecp-28), Po-Rn(ecp-46): K. A. Peterson, D. Figgen, E. Goll, H. Stoll, M. Dolg, J. Chem. Phys., 2003, 119, 11113-11123.
Rb(ecp-28), Cs(ecp-46): T. Leininger, A. Nicklass, W. Kuechle, H. Stoll, M. Dolg, A. Bergner, Chem. Phys. Lett., 1996, 255, 274-280.
Sr(ecp-28), Ba(ecp-46): M. Kaupp, P. V. Schleyer, H. Stoll and H. Preuss, J. Chem. Phys., 1991, 94, 1360-1366.
La(ecp-46): M. Dolg, H. Stoll, A. Savin, H. Preuss, Theor. Chim. Acta, 1989, 75, 173-194.
Lu(ecp-28): X. Cao, M. Dolg, J. Chem. Phys., 2001, 115, 7348-7355.

ECP parameters for Au [Def2-ECP] have been obtained from:
TURBOMOLE (7.0.2)

----- Orbital basis set information -----
Your calculation utilizes the basis: def2-SVP
   F. Weigend and R. Ahlrichs, Phys. Chem. Chem. Phys. 7, 3297 (2005).

----- AuxJ basis set information -----
Your calculation utilizes the auxiliary basis: def2/J
   F. Weigend, Phys. Chem. Chem. Phys. 8, 1057 (2006).

----- AuxC basis set information -----
Your calculation utilizes the auxiliary basis: def2-SVP/C
  H-La, Hf-Rn : A. Hellweg, C. Hattig, S. Hofener and W. Klopper, Theor. Chem. Acc. 117, 587 (2007).
        Ce-Lu : J. Chmela and M. E. Harding, Mol. Phys. (2018).

================================================================================
                                        WARNINGS
                       Please study these warnings very carefully!
================================================================================

INFO   : Checking CIS options ...
  ===> : (D) CORRECTION FOUND - SETTING MODE=3
  ===> : JK MODE FOUND - ACTIVATING RI-MP2 CODE
  ===> : MP2 AND CIS FOUND - CHECKING
WARNING: CIS(D) and MP2 runs must have the same orbital window
  ===> : adjusting orbital windows

WARNING: No MP2 level density has been requested!
         To caclulate MP2 level properties use
         %mp2 Density relaxed end
         or
         %mp2 Density unrelaxed end
         Otherwise for double-hybrid DFT only the energy is correct!

WARNING: The frozen-core approximation is turned on by default for 
         the MP2 part of double-hybrid DFT.

WARNING: CIS/ROCIS methods need fully converged wavefunctions
  ===> : Setting SCFConvForced true
         You can overwrite this default with %scf ConvForced false 


INFO   : the flag for use of the SHARK integral package has been found!

================================================================================
                                       INPUT FILE
================================================================================
NAME = Au-alkyne_2-full_B2PLYP_def2SVP.inp
|  1> %maxcore 6000
|  2> %pal
|  3>  nprocs 8
|  4> end
|  5> ! RI-B2PLYP def2-SVP def2/J def2-SVP/C RIJCOSX CPCM TIGHTSCF
|  6> 
|  7> %TDDFT 
|  8>     DCORR      4
|  9>     NROOTS    40
| 10>     TDA       FALSE
| 11> END
| 12> 
| 13> %CPCM
| 14>     SMD		TRUE
| 15>     SMDsolvent	"Acetonitrile"
| 16> END
| 17> 
| 18> * xyz 0 1
| 19> Au                 -4.55610900   -0.00065700   -0.00742000
| 20> C                  -7.22581000    1.19989100    0.00366500
| 21> C                  -7.22686800   -1.19841200    0.02526000
| 22> C                  -8.62468400   -1.21246900    0.03707300
| 23> C                  -9.30875400    0.00179600    0.03062700
| 24> C                  -8.62362200    1.21536500    0.01368300
| 25> C                  -6.31258900    2.35092900   -0.01260700
| 26> C                  -4.91233800    2.08377800   -0.02103800
| 27> C                  -4.03073100    3.16317200   -0.03755100
| 28> C                  -4.50455500    4.48040500   -0.04537200
| 29> C                  -5.87658500    4.73454900   -0.03628100
| 30> C                  -6.77911900    3.67397100   -0.01984200
| 31> H                  -9.16746500   -2.15763800    0.05044200
| 32> H                 -10.40062400    0.00235800    0.03897900
| 33> H                  -9.16557800    2.16109200    0.00852800
| 34> H                  -2.95037500    2.98720800   -0.04490100
| 35> H                  -3.79628400    5.31345200   -0.05864300
| 36> H                  -6.24576900    5.76258400   -0.04220600
| 37> H                  -7.85301400    3.87861300   -0.01305900
| 38> C                  -6.31470300   -2.35038600    0.02780500
| 39> C                  -6.78246400   -3.67289900    0.04490100
| 40> C                  -4.91422200   -2.08473900    0.01291500
| 41> C                  -5.88092600   -4.73444300    0.04796700
| 42> H                  -7.85653800   -3.87638500    0.05631300
| 43> C                  -4.03362600   -3.16507900    0.01645300
| 44> C                  -4.50866400   -4.48178700    0.03387300
| 45> H                  -6.25106000   -5.76206300    0.06165200
| 46> H                  -2.95310100   -2.99029000    0.00606400
| 47> H                  -3.80115700   -5.31558400    0.03662800
| 48> N                  -6.60305800    0.00041700    0.00940600
| 49> C                  -2.57853500   -0.00180100   -0.01843800
| 50> C                  -1.34813500   -0.00248200   -0.02012500
| 51> C                   0.07667200   -0.00330700   -0.01956400
| 52> C                   0.80462800    0.81994600   -0.90326900
| 53> C                   0.80171100   -0.82692900    0.86626300
| 54> C                   2.19301300    0.81303300   -0.90817700
| 55> H                   0.26577800    1.46052700   -1.60480400
| 56> C                   2.18999800   -0.81962500    0.87629500
| 57> H                   0.26045900   -1.46745900    1.56599600
| 58> C                   2.90003800   -0.00291800   -0.01440900
| 59> H                   2.73833300    1.43568700   -1.62033400
| 60> H                   2.73277800   -1.44197600    1.59065300
| 61> C                   5.13017900   -1.12972200   -0.01493000
| 62> C                   5.12780800    1.12811300    0.00198500
| 63> C                   4.79428800   -2.48486500   -0.07171500
| 64> C                   6.48497100   -0.72070100   -0.00576700
| 65> C                   4.78862900    2.48255700    0.05565000
| 66> C                   6.48344900    0.72182400    0.00655100
| 67> C                   5.83116500   -3.41123200   -0.09215700
| 68> H                   3.75484700   -2.81707200   -0.10659600
| 69> C                   7.50720400   -1.68032400   -0.02511400
| 70> C                   5.82336700    3.41101000    0.08704100
| 71> H                   3.74821700    2.81265700    0.07988500
| 72> C                   7.50347700    1.68350800    0.03675600
| 73> C                   7.19623400   -3.04103700   -0.06189600
| 74> H                   5.56919400   -4.47217500   -0.13525100
| 75> H                   8.54544900   -1.34193300   -0.01524400
| 76> C                   7.18941600    3.04358200    0.07083200
| 77> H                   5.55884300    4.47141000    0.12773300
| 78> H                   8.54243700    1.34717700    0.03758300
| 79> N                   4.31049800   -0.00165500   -0.01068900
| 80> C                   8.25679100    4.14021400    0.09477500
| 81> C                   8.26601200   -4.13550300   -0.07468100
| 82> C                   8.11580700   -4.98114700   -1.34421600
| 83> H                   8.87453700   -5.77843600   -1.37196300
| 84> H                   7.13068800   -5.46648600   -1.40458300
| 85> H                   8.24218200   -4.37042000   -2.25119600
| 86> C                   9.67632800   -3.55430600   -0.04457300
| 87> H                  10.41917600   -4.36540600   -0.05285800
| 88> H                   9.88104100   -2.91615600   -0.91706500
| 89> H                   9.85868800   -2.95468300    0.85966600
| 90> C                   8.08535600   -5.03588800    1.15279500
| 91> H                   8.18763600   -4.46526500    2.08849800
| 92> H                   7.09971300   -5.52383800    1.16691700
| 93> H                   8.84456400   -5.83315000    1.16517000
| 94> C                   8.09064200    4.98676200    1.36171900
| 95> H                   8.84784700    5.78517900    1.39748400
| 96> H                   7.10424100    5.47080600    1.41025900
| 97> H                   8.20740200    4.37706200    2.27067500
| 98> C                   9.66852100    3.56183200    0.08113200
| 99> H                   9.86237900    2.96192500   -0.82051900
|100> H                  10.40959800    4.37443100    0.09724200
|101> H                   9.86451800    2.92471300    0.95638000
|102> C                   8.08812900    5.03904600   -1.13554000
|103> H                   8.20281700    4.46782900   -2.06943900
|104> H                   7.10140500    5.52432100   -1.16162900
|105> H                   8.84534900    5.83828400   -1.13983900
|106> *
|107> 
|108>                          ****END OF INPUT****
================================================================================

                       ****************************
                       * Single Point Calculation *
                       ****************************

---------------------------------
CARTESIAN COORDINATES (ANGSTROEM)
---------------------------------
  Au    -4.556109   -0.000657   -0.007420
  C     -7.225810    1.199891    0.003665
  C     -7.226868   -1.198412    0.025260
  C     -8.624684   -1.212469    0.037073
  C     -9.308754    0.001796    0.030627
  C     -8.623622    1.215365    0.013683
  C     -6.312589    2.350929   -0.012607
  C     -4.912338    2.083778   -0.021038
  C     -4.030731    3.163172   -0.037551
  C     -4.504555    4.480405   -0.045372
  C     -5.876585    4.734549   -0.036281
  C     -6.779119    3.673971   -0.019842
  H     -9.167465   -2.157638    0.050442
  H    -10.400624    0.002358    0.038979
  H     -9.165578    2.161092    0.008528
  H     -2.950375    2.987208   -0.044901
  H     -3.796284    5.313452   -0.058643
  H     -6.245769    5.762584   -0.042206
  H     -7.853014    3.878613   -0.013059
  C     -6.314703   -2.350386    0.027805
  C     -6.782464   -3.672899    0.044901
  C     -4.914222   -2.084739    0.012915
  C     -5.880926   -4.734443    0.047967
  H     -7.856538   -3.876385    0.056313
  C     -4.033626   -3.165079    0.016453
  C     -4.508664   -4.481787    0.033873
  H     -6.251060   -5.762063    0.061652
  H     -2.953101   -2.990290    0.006064
  H     -3.801157   -5.315584    0.036628
  N     -6.603058    0.000417    0.009406
  C     -2.578535   -0.001801   -0.018438
  C     -1.348135   -0.002482   -0.020125
  C      0.076672   -0.003307   -0.019564
  C      0.804628    0.819946   -0.903269
  C      0.801711   -0.826929    0.866263
  C      2.193013    0.813033   -0.908177
  H      0.265778    1.460527   -1.604804
  C      2.189998   -0.819625    0.876295
  H      0.260459   -1.467459    1.565996
  C      2.900038   -0.002918   -0.014409
  H      2.738333    1.435687   -1.620334
  H      2.732778   -1.441976    1.590653
  C      5.130179   -1.129722   -0.014930
  C      5.127808    1.128113    0.001985
  C      4.794288   -2.484865   -0.071715
  C      6.484971   -0.720701   -0.005767
  C      4.788629    2.482557    0.055650
  C      6.483449    0.721824    0.006551
  C      5.831165   -3.411232   -0.092157
  H      3.754847   -2.817072   -0.106596
  C      7.507204   -1.680324   -0.025114
  C      5.823367    3.411010    0.087041
  H      3.748217    2.812657    0.079885
  C      7.503477    1.683508    0.036756
  C      7.196234   -3.041037   -0.061896
  H      5.569194   -4.472175   -0.135251
  H      8.545449   -1.341933   -0.015244
  C      7.189416    3.043582    0.070832
  H      5.558843    4.471410    0.127733
  H      8.542437    1.347177    0.037583
  N      4.310498   -0.001655   -0.010689
  C      8.256791    4.140214    0.094775
  C      8.266012   -4.135503   -0.074681
  C      8.115807   -4.981147   -1.344216
  H      8.874537   -5.778436   -1.371963
  H      7.130688   -5.466486   -1.404583
  H      8.242182   -4.370420   -2.251196
  C      9.676328   -3.554306   -0.044573
  H     10.419176   -4.365406   -0.052858
  H      9.881041   -2.916156   -0.917065
  H      9.858688   -2.954683    0.859666
  C      8.085356   -5.035888    1.152795
  H      8.187636   -4.465265    2.088498
  H      7.099713   -5.523838    1.166917
  H      8.844564   -5.833150    1.165170
  C      8.090642    4.986762    1.361719
  H      8.847847    5.785179    1.397484
  H      7.104241    5.470806    1.410259
  H      8.207402    4.377062    2.270675
  C      9.668521    3.561832    0.081132
  H      9.862379    2.961925   -0.820519
  H     10.409598    4.374431    0.097242
  H      9.864518    2.924713    0.956380
  C      8.088129    5.039046   -1.135540
  H      8.202817    4.467829   -2.069439
  H      7.101405    5.524321   -1.161629
  H      8.845349    5.838284   -1.139839

----------------------------
CARTESIAN COORDINATES (A.U.)
----------------------------
  NO LB      ZA    FRAG     MASS         X           Y           Z
   0 Au   19.0000*   0   196.966   -8.609798   -0.001242   -0.014022
   1 C     6.0000    0    12.011  -13.654802    2.267465    0.006926
   2 C     6.0000    0    12.011  -13.656801   -2.264670    0.047734
   3 C     6.0000    0    12.011  -16.298291   -2.291234    0.070058
   4 C     6.0000    0    12.011  -17.590996    0.003394    0.057877
   5 C     6.0000    0    12.011  -16.296284    2.296707    0.025857
   6 C     6.0000    0    12.011  -11.929064    4.442612   -0.023824
   7 C     6.0000    0    12.011   -9.282973    3.937770   -0.039756
   8 C     6.0000    0    12.011   -7.616978    5.977529   -0.070961
   9 C     6.0000    0    12.011   -8.512375    8.466738   -0.085741
  10 C     6.0000    0    12.011  -11.105136    8.947001   -0.068561
  11 C     6.0000    0    12.011  -12.810678    6.942799   -0.037496
  12 H     1.0000    0     1.008  -17.323998   -4.077345    0.095322
  13 H     1.0000    0     1.008  -19.654331    0.004456    0.073660
  14 H     1.0000    0     1.008  -17.320432    4.083872    0.016116
  15 H     1.0000    0     1.008   -5.575401    5.645005   -0.084851
  16 H     1.0000    0     1.008   -7.173937   10.040969   -0.110819
  17 H     1.0000    0     1.008  -11.802793   10.889706   -0.079758
  18 H     1.0000    0     1.008  -14.840046    7.329516   -0.024678
  19 C     6.0000    0    12.011  -11.933059   -4.441586    0.052544
  20 C     6.0000    0    12.011  -12.816999   -6.940773    0.084851
  21 C     6.0000    0    12.011   -9.286534   -3.939586    0.024406
  22 C     6.0000    0    12.011  -11.113340   -8.946801    0.090644
  23 H     1.0000    0     1.008  -14.846705   -7.325306    0.106416
  24 C     6.0000    0    12.011   -7.622448   -5.981133    0.031092
  25 C     6.0000    0    12.011   -8.520140   -8.469350    0.064011
  26 H     1.0000    0     1.008  -11.812791  -10.888721    0.116505
  27 H     1.0000    0     1.008   -5.580552   -5.650829    0.011459
  28 H     1.0000    0     1.008   -7.183146  -10.044998    0.069217
  29 N     7.0000    0    14.007  -12.477971    0.000788    0.017775
  30 C     6.0000    0    12.011   -4.872725   -0.003403   -0.034843
  31 C     6.0000    0    12.011   -2.547606   -0.004690   -0.038031
  32 C     6.0000    0    12.011    0.144889   -0.006249   -0.036971
  33 C     6.0000    0    12.011    1.520527    1.549473   -1.706931
  34 C     6.0000    0    12.011    1.515014   -1.562669    1.637000
  35 C     6.0000    0    12.011    4.144194    1.536410   -1.716206
  36 H     1.0000    0     1.008    0.502248    2.759996   -3.032640
  37 C     6.0000    0    12.011    4.138496   -1.548867    1.655958
  38 H     1.0000    0     1.008    0.492196   -2.773096    2.959304
  39 C     6.0000    0    12.011    5.480278   -0.005514   -0.027229
  40 H     1.0000    0     1.008    5.174699    2.713055   -3.061988
  41 H     1.0000    0     1.008    5.164202   -2.724940    3.005899
  42 C     6.0000    0    12.011    9.694633   -2.134865   -0.028214
  43 C     6.0000    0    12.011    9.690153    2.131825    0.003751
  44 C     6.0000    0    12.011    9.059891   -4.695714   -0.135522
  45 C     6.0000    0    12.011   12.254819   -1.361928   -0.010898
  46 C     6.0000    0    12.011    9.049197    4.691353    0.105163
  47 C     6.0000    0    12.011   12.251943    1.364050    0.012380
  48 C     6.0000    0    12.011   11.019305   -6.446294   -0.174151
  49 H     1.0000    0     1.008    7.095633   -5.323495   -0.201437
  50 C     6.0000    0    12.011   14.186560   -3.175352   -0.047459
  51 C     6.0000    0    12.011   11.004569    6.445875    0.164484
  52 H     1.0000    0     1.008    7.083104    5.315151    0.150961
  53 C     6.0000    0    12.011   14.179517    3.181369    0.069459
  54 C     6.0000    0    12.011   13.598911   -5.746727   -0.116966
  55 H     1.0000    0     1.008   10.524251   -8.451186   -0.255587
  56 H     1.0000    0     1.008   16.148558   -2.535886   -0.028807
  57 C     6.0000    0    12.011   13.586027    5.751536    0.133853
  58 H     1.0000    0     1.008   10.504691    8.449740    0.241380
  59 H     1.0000    0     1.008   16.142866    2.545796    0.071022
  60 N     7.0000    0    14.007    8.145661   -0.003127   -0.020199
  61 C     6.0000    0    12.011   15.603074    7.823871    0.179099
  62 C     6.0000    0    12.011   15.620499   -7.814968   -0.141127
  63 C     6.0000    0    12.011   15.336653   -9.413004   -2.540200
  64 H     1.0000    0     1.008   16.770444  -10.919662   -2.592634
  65 H     1.0000    0     1.008   13.475047  -10.330161   -2.654277
  66 H     1.0000    0     1.008   15.575467   -8.258897   -4.254144
  67 C     6.0000    0    12.011   18.285610   -6.716665   -0.084231
  68 H     1.0000    0     1.008   19.689389   -8.249422   -0.099887
  69 H     1.0000    0     1.008   18.672461   -5.510736   -1.733002
  70 H     1.0000    0     1.008   18.630220   -5.583542    1.624533
  71 C     6.0000    0    12.011   15.279109   -9.516449    2.178467
  72 H     1.0000    0     1.008   15.472390   -8.438128    3.946689
  73 H     1.0000    0     1.008   13.416513  -10.438541    2.205154
  74 H     1.0000    0     1.008   16.713804  -11.023056    2.201852
  75 C     6.0000    0    12.011   15.289098    9.423614    2.573276
  76 H     1.0000    0     1.008   16.720008   10.932404    2.640862
  77 H     1.0000    0     1.008   13.425070   10.338325    2.665003
  78 H     1.0000    0     1.008   15.509742    8.271448    4.290954
  79 C     6.0000    0    12.011   18.270857    6.730887    0.153317
  80 H     1.0000    0     1.008   18.637195    5.597227   -1.550556
  81 H     1.0000    0     1.008   19.671289    8.266477    0.183761
  82 H     1.0000    0     1.008   18.641237    5.526907    1.807296
  83 C     6.0000    0    12.011   15.284349    9.522417   -2.145860
  84 H     1.0000    0     1.008   15.501078    8.442973   -3.910673
  85 H     1.0000    0     1.008   13.419711   10.439454   -2.195161
  86 H     1.0000    0     1.008   16.715287   11.032758   -2.153984
* core charge reduced due to ECP

--------------------------------
INTERNAL COORDINATES (ANGSTROEM)
--------------------------------
 Au     0   0   0     0.000000000000     0.00000000     0.00000000
 C      1   0   0     2.927241330490     0.00000000     0.00000000
 C      2   1   0     2.398400455136    65.81549074     0.00000000
 C      3   2   1     1.397936592294    90.60575953   179.99078595
 C      4   3   2     1.393711880570   118.81504212     0.05799218
 C      5   4   3     1.393715420852   121.15828711   359.95540582
 C      2   1   3     1.469396423798    75.78356888   179.93660097
 C      7   2   1     1.425532743069   117.62843979     0.00000000
 C      8   7   2     1.393770063122   118.44092369   179.95031649
 C      9   8   7     1.399883254884   120.97661375     0.00000000
 C     10   9   8     1.395398917843   120.27467623     0.00000000
 C     11  10   9     1.392718046110   119.90523517   359.97691601
 H      4   3   2     1.090015771759   120.44672676   180.01975235
 H      5   4   3     1.091902087482   119.42110330   179.95422745
 H      6   5   4     1.090019467023   120.73842611   179.98746992
 H      9   8   7     1.094617028249   119.99193768   180.03470486
 H     10   9   8     1.093522397160   119.84553280   180.01842018
 H     11  10   9     1.092331402417   120.24456594   179.98883070
 H     12  11  10     1.093240517122   119.61019363   180.01710834
 C      3   2   1     1.469386117032   141.59996480     0.00000000
 C     20   3   2     1.402901729098   122.14731056   179.94304263
 C     20   3   2     1.425530452874   117.62988896     0.00000000
 C     21  20   3     1.392715272314   120.18073002   180.06144865
 H     21  20   3     1.093239106242   120.21005789     0.03603702
 C     22  20   3     1.393770550794   118.43988333   179.93574219
 C     23  21  20     1.395398398959   119.90476991     0.00000000
 H     23  21  20     1.092332056465   119.85060596   179.97911569
 H     25  22  20     1.094620208779   119.99189037   180.04757101
 H     26  23  21     1.093522373929   119.88008612   179.97935742
 N      3   2   1     1.351510723841    27.46384452     0.00000000
 C      1   2   3     1.977605023895   155.82004628   180.36687931
 C     31   1   2     1.230401344981   179.75933532    89.84012438
 C     32  31   1     1.424807349291   179.89887180     1.17046107
 C     33  32  31     1.410177282107   121.03964441   222.14773998
 C     33  32  31     1.410221338774   120.97852212    42.08129483
 C     34  33  32     1.388410885242   121.03187151   180.39433731
 H     34  33  32     1.092178875590   119.35636694   359.41868445
 C     35  33  32     1.388342459125   121.03603968   180.59707932
 H     35  33  32     1.092180699195   119.35176602   359.56673242
 C     36  34  33     1.401599665686   120.33643054   359.01042909
 H     36  34  33     1.091897201556   119.92601230   178.18387221
 H     38  35  33     1.091896628699   119.92112405   178.13128372
 C     40  36  34     2.498642912810   135.44970541   152.04653620
 C     43  40  36     2.257899604963    63.13484256    65.86818231
 C     43  40  36     1.397304494573   102.87438107   247.77951294
 C     43  40  36     1.415218535165   136.39349534    65.94348722
 C     44  43  40     1.397297704644   165.89385832     7.54517354
 C     44  43  40     1.415222286695    73.25824707   179.88188110
 C     45  43  40     1.390570964454   117.86768609   179.75826006
 H     45  43  40     1.091794746045   121.68516721     0.19413304
 C     46  43  40     1.402216429381   120.00028386   180.72031108
 C     47  44  48     1.390572938301   117.86838708     1.22359289
 H     47  44  48     1.091792322271   121.68457248   181.65977799
 C     48  44  43     1.402214526620   119.99951455   180.81468325
 C     51  46  43     1.396279028272   120.32684963     0.40150106
 H     49  45  43     1.093657143225   117.91877842   179.92011149
 H     51  46  43     1.092043298503   118.74490311   180.13949279
 C     54  48  44     1.396279617760   120.32824864     0.39899118
 H     52  47  44     1.093653027902   117.91987636   179.92190113
 H     54  48  44     1.092042630619   118.74238607   180.12834135
 N     43  40  36     1.394428228462    27.19166409    65.75115275
 C     58  54  48     1.530511156868   122.78257296   180.44642534
 C     55  51  46     1.530504573879   122.78146575   180.43581303
 C     63  55  51     1.532773444768   109.44794265   239.61191227
 H     64  63  55     1.100959063013   110.66324596   180.21771461
 H     64  63  55     1.099844336154   112.12892251   299.90304617
 H     64  63  55     1.100713781850   111.41470323    60.58008703
 C     63  55  51     1.525676133499   111.93419880   359.92461454
 H     68  63  55     1.099897723577   110.07458716   179.90138560
 H     68  63  55     1.100175042860   112.16763565   299.19656274
 H     68  63  55     1.100205017644   112.15141857    60.61258451
 C     63  55  51     1.532979800629   109.32644667   120.13890106
 H     72  63  55     1.100732442848   111.42194839   299.58729492
 H     72  63  55     1.099903067017   112.11382316    60.24966307
 H     72  63  55     1.100988930250   110.67404169   179.94937280
 C     62  58  54     1.532773990398   109.45482046   239.51240114
 H     76  62  58     1.100957879821   110.66029709   180.18492445
 H     76  62  58     1.099837105365   112.13353078   299.86481486
 H     76  62  58     1.100712495403   111.41666959    60.54795848
 C     62  58  54     1.525678033621   111.93424810   359.82729605
 H     80  62  58     1.100201735417   112.15303084    60.62040458
 H     80  62  58     1.099896261849   110.07444790   179.90810846
 H     80  62  58     1.100179306147   112.16457118   299.20545236
 C     62  58  54     1.532977766862   109.31912102   120.03871470
 H     84  62  58     1.100731366244   111.41920012   299.54897900
 H     84  62  58     1.099907593265   112.11235094    60.20608939
 H     84  62  58     1.100991367107   110.67686333   179.91260251

---------------------------
INTERNAL COORDINATES (A.U.)
---------------------------
 Au     0   0   0     0.000000000000     0.00000000     0.00000000
 C      1   0   0     5.531684442522     0.00000000     0.00000000
 C      2   1   0     4.532320019680    65.81549074     0.00000000
 C      3   2   1     2.641717312022    90.60575953   179.99078595
 C      4   3   2     2.633733763869   118.81504212     0.05799218
 C      5   4   3     2.633740454033   121.15828711   359.95540582
 C      2   1   3     2.776756823141    75.78356888   179.93660097
 C      7   2   1     2.693866479339   117.62843979     0.00000000
 C      8   7   2     2.633843712958   118.44092369   179.95031649
 C      9   8   7     2.645395971194   120.97661375     0.00000000
 C     10   9   8     2.636921802293   120.27467623     0.00000000
 C     11  10   9     2.631855688918   119.90523517   359.97691601
 H      4   3   2     2.059831290279   120.44672676   180.01975235
 H      5   4   3     2.063395910398   119.42110330   179.95422745
 H      6   5   4     2.059838273317   120.73842611   179.98746992
 H      9   8   7     2.068526404917   119.99193768   180.03470486
 H     10   9   8     2.066457851942   119.84553280   180.01842018
 H     11  10   9     2.064207198050   120.24456594   179.98883070
 H     12  11  10     2.065925175868   119.61019363   180.01710834
 C      3   2   1     2.776737346176   141.59996480     0.00000000
 C     20   3   2     2.651100060800   122.14731056   179.94304263
 C     20   3   2     2.693862151496   117.62988896     0.00000000
 C     21  20   3     2.631850447203   120.18073002   180.06144865
 H     21  20   3     2.065922509690   120.21005789     0.03603702
 C     22  20   3     2.633844634525   118.43988333   179.93574219
 C     23  21  20     2.636920821744   119.90476991     0.00000000
 H     23  21  20     2.064208434022   119.85060596   179.97911569
 H     25  22  20     2.068532415248   119.99189037   180.04757101
 H     26  23  21     2.066457808041   119.88008612   179.97935742
 N      3   2   1     2.553985135117    27.46384452     0.00000000
 C      1   2   3     3.737131896229   155.82004628   180.36687931
 C     31   1   2     2.325121576822   179.75933532    89.84012438
 C     32  31   1     2.692495683759   179.89887180     1.17046107
 C     33  32  31     2.664848863459   121.03964441   222.14773998
 C     33  32  31     2.664932118495   120.97852212    42.08129483
 C     34  33  32     2.623716334462   121.03187151   180.39433731
 H     34  33  32     2.063918964120   119.35636694   359.41868445
 C     35  33  32     2.623587027841   121.03603968   180.59707932
 H     35  33  32     2.063922410232   119.35176602   359.56673242
 C     36  34  33     2.648639517541   120.33643054   359.01042909
 H     36  34  33     2.063386677335   119.92601230   178.18387221
 H     38  35  33     2.063385594794   119.92112405   178.13128372
 C     40  36  34     4.721750811675   135.44970541   152.04653620
 C     43  40  36     4.266811891269    63.13484256    65.86818231
 C     43  40  36     2.640522820441   102.87438107   247.77951294
 C     43  40  36     2.674375451111   136.39349534    65.94348722
 C     44  43  40     2.640509989333   165.89385832     7.54517354
 C     44  43  40     2.674382540475    73.25824707   179.88188110
 C     45  43  40     2.627798292600   117.86768609   179.75826006
 H     45  43  40     2.063193064479   121.68516721     0.19413304
 C     46  43  40     2.649805032016   120.00028386   180.72031108
 C     47  44  48     2.627802022630   117.86838708     1.22359289
 H     47  44  48     2.063188484209   121.68457248   181.65977799
 C     48  44  43     2.649801436318   119.99951455   180.81468325
 C     51  46  43     2.638584969972   120.32684963     0.40150106
 H     49  45  43     2.066712485101   117.91877842   179.92011149
 H     51  46  43     2.063662760555   118.74490311   180.13949279
 C     54  48  44     2.638586083943   120.32824864     0.39899118
 H     52  47  44     2.066704708269   117.91987636   179.92190113
 H     54  48  44     2.063661498437   118.74238607   180.12834135
 N     43  40  36     2.635087465202    27.19166409    65.75115275
 C     58  54  48     2.892246931392   122.78257296   180.44642534
 C     55  51  46     2.892234491345   122.78146575   180.43581303
 C     63  55  51     2.896522035959   109.44794265   239.61191227
 H     64  63  55     2.080511113753   110.66324596   180.21771461
 H     64  63  55     2.078404585276   112.12892251   299.90304617
 H     64  63  55     2.080047599529   111.41470323    60.58008703
 C     63  55  51     2.883110061373   111.93419880   359.92461454
 H     68  63  55     2.078505472883   110.07458716   179.90138560
 H     68  63  55     2.079029530381   112.16763565   299.19656274
 H     68  63  55     2.079086174514   112.15141857    60.61258451
 C     63  55  51     2.896911992022   109.32644667   120.13890106
 H     72  63  55     2.080082863705   111.42194839   299.58729492
 H     72  63  55     2.078515570522   112.11382316    60.24966307
 H     72  63  55     2.080567554651   110.67404169   179.94937280
 C     62  58  54     2.896523067050   109.45482046   239.51240114
 H     76  62  58     2.080508877843   110.66029709   180.18492445
 H     76  62  58     2.078390921064   112.13353078   299.86481486
 H     76  62  58     2.080045168496   111.41666959    60.54795848
 C     62  58  54     2.883113652083   111.93424810   359.82729605
 H     80  62  58     2.079079972003   112.15303084    60.62040458
 H     80  62  58     2.078502710619   110.07444790   179.90810846
 H     80  62  58     2.079037586825   112.16457118   299.20545236
 C     62  58  54     2.896908148759   109.31912102   120.03871470
 H     84  62  58     2.080080829219   111.41920012   299.54897900
 H     84  62  58     2.078524123891   112.11235094    60.20608939
 H     84  62  58     2.080572159645   110.67686333   179.91260251

---------------------
BASIS SET INFORMATION
---------------------
There are 4 groups of distinct atoms

 Group   1 Type Au  : 7s6p5d1f contracted to 6s3p2d1f pattern {211111/411/41/1}
 Group   2 Type C   : 7s4p1d contracted to 3s2p1d pattern {511/31/1}
 Group   3 Type H   : 4s1p contracted to 2s1p pattern {31/1}
 Group   4 Type N   : 7s4p1d contracted to 3s2p1d pattern {511/31/1}

Atom   0Au   basis set group =>   1
Atom   1C    basis set group =>   2
Atom   2C    basis set group =>   2
Atom   3C    basis set group =>   2
Atom   4C    basis set group =>   2
Atom   5C    basis set group =>   2
Atom   6C    basis set group =>   2
Atom   7C    basis set group =>   2
Atom   8C    basis set group =>   2
Atom   9C    basis set group =>   2
Atom  10C    basis set group =>   2
Atom  11C    basis set group =>   2
Atom  12H    basis set group =>   3
Atom  13H    basis set group =>   3
Atom  14H    basis set group =>   3
Atom  15H    basis set group =>   3
Atom  16H    basis set group =>   3
Atom  17H    basis set group =>   3
Atom  18H    basis set group =>   3
Atom  19C    basis set group =>   2
Atom  20C    basis set group =>   2
Atom  21C    basis set group =>   2
Atom  22C    basis set group =>   2
Atom  23H    basis set group =>   3
Atom  24C    basis set group =>   2
Atom  25C    basis set group =>   2
Atom  26H    basis set group =>   3
Atom  27H    basis set group =>   3
Atom  28H    basis set group =>   3
Atom  29N    basis set group =>   4
Atom  30C    basis set group =>   2
Atom  31C    basis set group =>   2
Atom  32C    basis set group =>   2
Atom  33C    basis set group =>   2
Atom  34C    basis set group =>   2
Atom  35C    basis set group =>   2
Atom  36H    basis set group =>   3
Atom  37C    basis set group =>   2
Atom  38H    basis set group =>   3
Atom  39C    basis set group =>   2
Atom  40H    basis set group =>   3
Atom  41H    basis set group =>   3
Atom  42C    basis set group =>   2
Atom  43C    basis set group =>   2
Atom  44C    basis set group =>   2
Atom  45C    basis set group =>   2
Atom  46C    basis set group =>   2
Atom  47C    basis set group =>   2
Atom  48C    basis set group =>   2
Atom  49H    basis set group =>   3
Atom  50C    basis set group =>   2
Atom  51C    basis set group =>   2
Atom  52H    basis set group =>   3
Atom  53C    basis set group =>   2
Atom  54C    basis set group =>   2
Atom  55H    basis set group =>   3
Atom  56H    basis set group =>   3
Atom  57C    basis set group =>   2
Atom  58H    basis set group =>   3
Atom  59H    basis set group =>   3
Atom  60N    basis set group =>   4
Atom  61C    basis set group =>   2
Atom  62C    basis set group =>   2
Atom  63C    basis set group =>   2
Atom  64H    basis set group =>   3
Atom  65H    basis set group =>   3
Atom  66H    basis set group =>   3
Atom  67C    basis set group =>   2
Atom  68H    basis set group =>   3
Atom  69H    basis set group =>   3
Atom  70H    basis set group =>   3
Atom  71C    basis set group =>   2
Atom  72H    basis set group =>   3
Atom  73H    basis set group =>   3
Atom  74H    basis set group =>   3
Atom  75C    basis set group =>   2
Atom  76H    basis set group =>   3
Atom  77H    basis set group =>   3
Atom  78H    basis set group =>   3
Atom  79C    basis set group =>   2
Atom  80H    basis set group =>   3
Atom  81H    basis set group =>   3
Atom  82H    basis set group =>   3
Atom  83C    basis set group =>   2
Atom  84H    basis set group =>   3
Atom  85H    basis set group =>   3
Atom  86H    basis set group =>   3
---------------------------------
AUXILIARY/J BASIS SET INFORMATION
---------------------------------
There are 4 groups of distinct atoms

 Group   1 Type Au  : 11s5p5d3f3g contracted to 8s5p5d2f3g pattern {41111111/11111/11111/21/111}
 Group   2 Type C   : 12s5p4d2f1g contracted to 6s4p3d1f1g pattern {711111/2111/211/2/1}
 Group   3 Type H   : 5s2p1d contracted to 3s1p1d pattern {311/2/1}
 Group   4 Type N   : 12s5p4d2f1g contracted to 6s4p3d1f1g pattern {711111/2111/211/2/1}

Atom   0Au   basis set group =>   1
Atom   1C    basis set group =>   2
Atom   2C    basis set group =>   2
Atom   3C    basis set group =>   2
Atom   4C    basis set group =>   2
Atom   5C    basis set group =>   2
Atom   6C    basis set group =>   2
Atom   7C    basis set group =>   2
Atom   8C    basis set group =>   2
Atom   9C    basis set group =>   2
Atom  10C    basis set group =>   2
Atom  11C    basis set group =>   2
Atom  12H    basis set group =>   3
Atom  13H    basis set group =>   3
Atom  14H    basis set group =>   3
Atom  15H    basis set group =>   3
Atom  16H    basis set group =>   3
Atom  17H    basis set group =>   3
Atom  18H    basis set group =>   3
Atom  19C    basis set group =>   2
Atom  20C    basis set group =>   2
Atom  21C    basis set group =>   2
Atom  22C    basis set group =>   2
Atom  23H    basis set group =>   3
Atom  24C    basis set group =>   2
Atom  25C    basis set group =>   2
Atom  26H    basis set group =>   3
Atom  27H    basis set group =>   3
Atom  28H    basis set group =>   3
Atom  29N    basis set group =>   4
Atom  30C    basis set group =>   2
Atom  31C    basis set group =>   2
Atom  32C    basis set group =>   2
Atom  33C    basis set group =>   2
Atom  34C    basis set group =>   2
Atom  35C    basis set group =>   2
Atom  36H    basis set group =>   3
Atom  37C    basis set group =>   2
Atom  38H    basis set group =>   3
Atom  39C    basis set group =>   2
Atom  40H    basis set group =>   3
Atom  41H    basis set group =>   3
Atom  42C    basis set group =>   2
Atom  43C    basis set group =>   2
Atom  44C    basis set group =>   2
Atom  45C    basis set group =>   2
Atom  46C    basis set group =>   2
Atom  47C    basis set group =>   2
Atom  48C    basis set group =>   2
Atom  49H    basis set group =>   3
Atom  50C    basis set group =>   2
Atom  51C    basis set group =>   2
Atom  52H    basis set group =>   3
Atom  53C    basis set group =>   2
Atom  54C    basis set group =>   2
Atom  55H    basis set group =>   3
Atom  56H    basis set group =>   3
Atom  57C    basis set group =>   2
Atom  58H    basis set group =>   3
Atom  59H    basis set group =>   3
Atom  60N    basis set group =>   4
Atom  61C    basis set group =>   2
Atom  62C    basis set group =>   2
Atom  63C    basis set group =>   2
Atom  64H    basis set group =>   3
Atom  65H    basis set group =>   3
Atom  66H    basis set group =>   3
Atom  67C    basis set group =>   2
Atom  68H    basis set group =>   3
Atom  69H    basis set group =>   3
Atom  70H    basis set group =>   3
Atom  71C    basis set group =>   2
Atom  72H    basis set group =>   3
Atom  73H    basis set group =>   3
Atom  74H    basis set group =>   3
Atom  75C    basis set group =>   2
Atom  76H    basis set group =>   3
Atom  77H    basis set group =>   3
Atom  78H    basis set group =>   3
Atom  79C    basis set group =>   2
Atom  80H    basis set group =>   3
Atom  81H    basis set group =>   3
Atom  82H    basis set group =>   3
Atom  83C    basis set group =>   2
Atom  84H    basis set group =>   3
Atom  85H    basis set group =>   3
Atom  86H    basis set group =>   3
---------------------------------
AUXILIARY/C BASIS SET INFORMATION
---------------------------------
There are 4 groups of distinct atoms

 Group   1 Type Au  : 8s8p7d5f3g1h contracted to 8s8p7d5f3g1h pattern {11111111/11111111/1111111/11111/111/1}
 Group   2 Type C   : 8s6p5d3f contracted to 6s5p4d1f pattern {311111/21111/2111/3}
 Group   3 Type H   : 4s3p2d contracted to 3s2p1d pattern {211/21/2}
 Group   4 Type N   : 8s6p5d3f contracted to 6s5p4d1f pattern {311111/21111/2111/3}

Atom   0Au   basis set group =>   1
Atom   1C    basis set group =>   2
Atom   2C    basis set group =>   2
Atom   3C    basis set group =>   2
Atom   4C    basis set group =>   2
Atom   5C    basis set group =>   2
Atom   6C    basis set group =>   2
Atom   7C    basis set group =>   2
Atom   8C    basis set group =>   2
Atom   9C    basis set group =>   2
Atom  10C    basis set group =>   2
Atom  11C    basis set group =>   2
Atom  12H    basis set group =>   3
Atom  13H    basis set group =>   3
Atom  14H    basis set group =>   3
Atom  15H    basis set group =>   3
Atom  16H    basis set group =>   3
Atom  17H    basis set group =>   3
Atom  18H    basis set group =>   3
Atom  19C    basis set group =>   2
Atom  20C    basis set group =>   2
Atom  21C    basis set group =>   2
Atom  22C    basis set group =>   2
Atom  23H    basis set group =>   3
Atom  24C    basis set group =>   2
Atom  25C    basis set group =>   2
Atom  26H    basis set group =>   3
Atom  27H    basis set group =>   3
Atom  28H    basis set group =>   3
Atom  29N    basis set group =>   4
Atom  30C    basis set group =>   2
Atom  31C    basis set group =>   2
Atom  32C    basis set group =>   2
Atom  33C    basis set group =>   2
Atom  34C    basis set group =>   2
Atom  35C    basis set group =>   2
Atom  36H    basis set group =>   3
Atom  37C    basis set group =>   2
Atom  38H    basis set group =>   3
Atom  39C    basis set group =>   2
Atom  40H    basis set group =>   3
Atom  41H    basis set group =>   3
Atom  42C    basis set group =>   2
Atom  43C    basis set group =>   2
Atom  44C    basis set group =>   2
Atom  45C    basis set group =>   2
Atom  46C    basis set group =>   2
Atom  47C    basis set group =>   2
Atom  48C    basis set group =>   2
Atom  49H    basis set group =>   3
Atom  50C    basis set group =>   2
Atom  51C    basis set group =>   2
Atom  52H    basis set group =>   3
Atom  53C    basis set group =>   2
Atom  54C    basis set group =>   2
Atom  55H    basis set group =>   3
Atom  56H    basis set group =>   3
Atom  57C    basis set group =>   2
Atom  58H    basis set group =>   3
Atom  59H    basis set group =>   3
Atom  60N    basis set group =>   4
Atom  61C    basis set group =>   2
Atom  62C    basis set group =>   2
Atom  63C    basis set group =>   2
Atom  64H    basis set group =>   3
Atom  65H    basis set group =>   3
Atom  66H    basis set group =>   3
Atom  67C    basis set group =>   2
Atom  68H    basis set group =>   3
Atom  69H    basis set group =>   3
Atom  70H    basis set group =>   3
Atom  71C    basis set group =>   2
Atom  72H    basis set group =>   3
Atom  73H    basis set group =>   3
Atom  74H    basis set group =>   3
Atom  75C    basis set group =>   2
Atom  76H    basis set group =>   3
Atom  77H    basis set group =>   3
Atom  78H    basis set group =>   3
Atom  79C    basis set group =>   2
Atom  80H    basis set group =>   3
Atom  81H    basis set group =>   3
Atom  82H    basis set group =>   3
Atom  83C    basis set group =>   2
Atom  84H    basis set group =>   3
Atom  85H    basis set group =>   3
Atom  86H    basis set group =>   3
-------------------------
ECP PARAMETER INFORMATION
-------------------------

 Group 1, Type Au ECP Def2-ECP (replacing 60 core electrons, lmax=3)

Atom   0Au   ECP group =>   1



           ************************************************************
           *        Program running with 8 parallel MPI-processes     *
           *              working on a common directory               *
           ************************************************************
------------------------------------------------------------------------------
                           ORCA GTO INTEGRAL CALCULATION
                           -- RI-GTO INTEGRALS CHOSEN --
------------------------------------------------------------------------------
------------------------------------------------------------------------------
                   ___                                                        
                  /   \      - P O W E R E D   B Y -                         
                 /     \                                                     
                 |  |  |   _    _      __       _____    __    __             
                 |  |  |  | |  | |    /  \     |  _  \  |  |  /  |          
                  \  \/   | |  | |   /    \    | | | |  |  | /  /          
                 / \  \   | |__| |  /  /\  \   | |_| |  |  |/  /          
                |  |  |   |  __  | /  /__\  \  |    /   |      \           
                |  |  |   | |  | | |   __   |  |    \   |  |\   \          
                \     /   | |  | | |  |  |  |  | |\  \  |  | \   \       
                 \___/    |_|  |_| |__|  |__|  |_| \__\ |__|  \__/        
                                                                              
                      - O R C A' S   B I G   F R I E N D -                    
                                      &                                       
                       - I N T E G R A L  F E E D E R -                       
                                                                              
 v1 FN, 2020, v2 2021                                                         
------------------------------------------------------------------------------


Reading SHARK input file Au-alkyne_2-full_B2PLYP_def2SVP.SHARKINP.tmp ... ok
----------------------
SHARK INTEGRAL PACKAGE
----------------------

Number of atoms                             ...     87
Number of basis functions                   ...    885
Number of shells                            ...    411
Maximum angular momentum                    ...      3
Integral batch strategy                     ... SHARK/LIBINT Hybrid
RI-J (if used) integral strategy            ... SPLIT-RIJ (Revised 2003 algorithm where possible)
Printlevel                                  ...      1
Contraction scheme used                     ... SEGMENTED contraction
Coulomb Range Separation                    ... NOT USED
Exchange Range Separation                   ... NOT USED
Finite Nucleus Model                        ... NOT USED
Auxiliary Coulomb fitting basis             ... AVAILABLE
   # of basis functions in Aux-J            ...   2821
   # of shells in Aux-J                     ...    923
   Maximum angular momentum in Aux-J        ...      4
Auxiliary J/K fitting basis                 ... NOT available
Auxiliary Correlation fitting basis         ... AVAILABLE
   # of basis functions in Aux-C            ...   2942
   # of shells in Aux-C                     ...   1018
   Maximum angular momentum in Aux-C        ...      5
Auxiliary 'external' fitting basis          ... NOT available
Integral threshold                          ...     2.500000e-11
Primitive cut-off                           ...     2.500000e-12
Primitive pair pre-selection threshold      ...     2.500000e-12

Calculating pre-screening integrals         ... done (  0.1 sec) Dimension = 411
Organizing shell pair data                  ... done (  0.1 sec)
Shell pair information
Total number of shell pairs                 ...     84666
Shell pairs after pre-screening             ...     33803
Total number of primitive shell pairs       ...    303772
Primitive shell pairs kept                  ...     74319
          la=0 lb=0:  10434 shell pairs
          la=1 lb=0:  12583 shell pairs
          la=1 lb=1:   3897 shell pairs
          la=2 lb=0:   3946 shell pairs
          la=2 lb=1:   2403 shell pairs
          la=2 lb=2:    373 shell pairs
          la=3 lb=0:     91 shell pairs
          la=3 lb=1:     52 shell pairs
          la=3 lb=2:     23 shell pairs
          la=3 lb=3:      1 shell pairs

Calculating one electron integrals          ... done (  0.1 sec)
Calculating ECP integrals                   ... done (  0.6 sec)
Calculating RI/J V-Matrix + Cholesky decomp.... done (  0.4 sec)
Calculating RI/C V-Matrix + Cholesky decomp.... done (  0.4 sec)
Calculating Nuclear repulsion               ... done (  0.0 sec) ENN=   5371.622718108058 Eh

SHARK setup successfully completed in   1.9 seconds

Maximum memory used throughout the entire GTOINT-calculation: 74.9 MB


           ************************************************************
           *        Program running with 8 parallel MPI-processes     *
           *              working on a common directory               *
           ************************************************************
-------------------------------------------------------------------------------
                                 ORCA SCF
-------------------------------------------------------------------------------

------------
SCF SETTINGS
------------
Hamiltonian:
 Density Functional     Method          .... DFT(GTOs)
 Exchange Functional    Exchange        .... B88
   X-Alpha parameter    XAlpha          ....  0.666667
   Becke's b parameter  XBeta           ....  0.004200
 Correlation Functional Correlation     .... LYP
 LDA part of GGA corr.  LDAOpt          .... VWN-3
 Gradients option       PostSCFGGA      .... off
 Hybrid DFT is turned on
   Fraction HF Exchange ScalHFX         ....  0.530000
   Scaling of DF-GGA-X  ScalDFX         ....  0.470000
   Scaling of DF-GGA-C  ScalDFC         ....  0.730000
   Scaling of DF-LDA-C  ScalLDAC        ....  0.730000
   Perturbative correction              ....  0.270000
   Density functional embedding theory  .... OFF
   NL short-range parameter             ....  7.800000
 RI-approximation to the Coulomb term is turned on
   Number of AuxJ basis functions       .... 2821
   RIJ-COSX (HFX calculated with COS-X)).... on


General Settings:
 Integral files         IntName         .... Au-alkyne_2-full_B2PLYP_def2SVP
 Hartree-Fock type      HFTyp           .... RHF
 Total Charge           Charge          ....    0
 Multiplicity           Mult            ....    1
 Number of Electrons    NEL             ....  342
 Basis Dimension        Dim             ....  885
 Nuclear Repulsion      ENuc            ....   5371.6227181081 Eh

Convergence Acceleration:
 DIIS                   CNVDIIS         .... on
   Start iteration      DIISMaxIt       ....    12
   Startup error        DIISStart       ....  0.200000
   # of expansion vecs  DIISMaxEq       ....     5
   Bias factor          DIISBfac        ....   1.050
   Max. coefficient     DIISMaxC        ....  10.000
 Trust-Rad. Augm. Hess. CNVTRAH         .... auto
   Auto Start mean grad. ratio tolernc. ....  1.125000
   Auto Start start iteration           ....    20
   Auto Start num. interpolation iter.  ....    10
   Max. Number of Micro iterations      ....    16
   Max. Number of Macro iterations      .... Maxiter - #DIIS iter
   Number of Davidson start vectors     ....     2
   Converg. threshold I  (grad. norm)   ....   1.000e-05
   Converg. threshold II (energy diff.) ....   1.000e-08
   Grad. Scal. Fac. for Micro threshold ....   0.100
   Minimum threshold for Micro iter.    ....   0.010
   NR start threshold (gradient norm)   ....   0.001
   Initial trust radius                 ....   0.400
   Minimum AH scaling param. (alpha)    ....   1.000
   Maximum AH scaling param. (alpha)    .... 1000.000
   Orbital update algorithm             .... Taylor
   White noise on init. David. guess    .... on
   Maximum white noise                  ....   0.010
   Quad. conv. algorithm                .... NR
 SOSCF                  CNVSOSCF        .... off
 Level Shifting         CNVShift        .... on
   Level shift para.    LevelShift      ....    0.2500
   Turn off err/grad.   ShiftErr        ....    0.0010
 Zerner damping         CNVZerner       .... off
 Static damping         CNVDamp         .... on
   Fraction old density DampFac         ....    0.7000
   Max. Damping (<1)    DampMax         ....    0.9800
   Min. Damping (>=0)   DampMin         ....    0.0000
   Turn off err/grad.   DampErr         ....    0.1000
 Fernandez-Rico         CNVRico         .... off

SCF Procedure:
 Maximum # iterations   MaxIter         ....   125
 SCF integral mode      SCFMode         .... Direct
   Integral package                     .... SHARK and LIBINT hybrid scheme
 Reset frequency        DirectResetFreq ....    20
 Integral Threshold     Thresh          ....  2.500e-11 Eh
 Primitive CutOff       TCut            ....  2.500e-12 Eh

Convergence Tolerance:
 Convergence Check Mode ConvCheckMode   .... Total+1el-Energy
 Convergence forced     ConvForced      .... 1
 Energy Change          TolE            ....  1.000e-08 Eh
 1-El. energy change                    ....  1.000e-05 Eh
 DIIS Error             TolErr          ....  5.000e-07


Diagonalization of the overlap matrix:
Smallest eigenvalue                        ... 2.083e-04
Time for diagonalization                   ...    0.120 sec
Threshold for overlap eigenvalues          ... 1.000e-08
Number of eigenvalues below threshold      ... 0
Time for construction of square roots      ...    0.076 sec
Total time needed                          ...    0.198 sec

Time for model grid setup =    0.939 sec

------------------------------
INITIAL GUESS: MODEL POTENTIAL
------------------------------
Loading Hartree-Fock densities                     ... done
  calling /project/ligandum/orca_504_openmpi411/orca Au-alkyne_2-full_B2PLYP_def2SVP_atom79.inp > Au-alkyne_2-full_B2PLYP_def2SVP_atom79.out in order to generate an atomic fitting density for atom 0 (Au with ECP) on-the-fly... 
    atom 0 (Au), assumed electronic state with S=2: 1s2 2s2 2p6 3s2 3p6 4s2 3d10 4p6 5s2 4d10 5p6 6s1 4f14 5d10           ... done
Calculating cut-offs                               ... done
Initializing the effective Hamiltonian             ... done
Setting up the integral package (SHARK)            ... done
Starting the Coulomb interaction                   ... done (   0.6 sec)
Reading the grid                                   ... done
Mapping shells                                     ... done
Starting the XC term evaluation                    ... done (   0.2 sec)
  promolecular density results
     # of electrons  =    401.990707998
     EX              =   -623.536796854
     EC              =     -5.229372114
     EX+EC           =   -628.766168968
Transforming the Hamiltonian                       ... done (   0.1 sec)
Diagonalizing the Hamiltonian                      ... done (   0.1 sec)
Back transforming the eigenvectors                 ... done (   0.0 sec)
Now organizing SCF variables                       ... done
                      ------------------
                      INITIAL GUESS DONE (   2.6 sec)
                      ------------------
-------------------
DFT GRID GENERATION
-------------------

General Integration Accuracy     IntAcc      ... 4.388
Radial Grid Type                 RadialGrid  ... OptM3 with GC (2021)
Angular Grid (max. ang.)         AngularGrid ... 4 (Lebedev-302)
Angular grid pruning method      GridPruning ... 4 (adaptive)
Weight generation scheme         WeightScheme... Becke
Basis function cutoff            BFCut       ... 1.0000e-11
Integration weight cutoff        WCut        ... 1.0000e-14
Angular grids for H and He will be reduced by one unit
Partially contracted basis set               ... off
Rotationally invariant grid construction     ... off

Total number of grid points                  ...   413665
Total number of batches                      ...     6506
Average number of points per batch           ...       63
Average number of grid points per atom       ...     4755
Time for grid setup =    3.586 sec

--------------------
COSX GRID GENERATION
--------------------

GRIDX 1
-------
General Integration Accuracy     IntAcc      ... 3.816
Radial Grid Type                 RadialGrid  ... OptM3 with GC (2021)
Angular Grid (max. ang.)         AngularGrid ... 1 (Lebedev-50)
Angular grid pruning method      GridPruning ... 4 (adaptive)
Weight generation scheme         WeightScheme... Becke
Basis function cutoff            BFCut       ... 1.0000e-11
Integration weight cutoff        WCut        ... 1.0000e-14
Angular grids for H and He will be reduced by one unit
Partially contracted basis set               ... on
Rotationally invariant grid construction     ... off

Total number of grid points                  ...    52245
Total number of batches                      ...      858
Average number of points per batch           ...       60
Average number of grid points per atom       ...      601
UseSFitting                                  ... on

GRIDX 2
-------
General Integration Accuracy     IntAcc      ... 4.020
Radial Grid Type                 RadialGrid  ... OptM3 with GC (2021)
Angular Grid (max. ang.)         AngularGrid ... 2 (Lebedev-110)
Angular grid pruning method      GridPruning ... 4 (adaptive)
Weight generation scheme         WeightScheme... Becke
Basis function cutoff            BFCut       ... 1.0000e-11
Integration weight cutoff        WCut        ... 1.0000e-14
Angular grids for H and He will be reduced by one unit
Partially contracted basis set               ... on
Rotationally invariant grid construction     ... off

Total number of grid points                  ...   113118
Total number of batches                      ...     1811
Average number of points per batch           ...       62
Average number of grid points per atom       ...     1300
UseSFitting                                  ... on

GRIDX 3
-------
General Integration Accuracy     IntAcc      ... 4.338
Radial Grid Type                 RadialGrid  ... OptM3 with GC (2021)
Angular Grid (max. ang.)         AngularGrid ... 3 (Lebedev-194)
Angular grid pruning method      GridPruning ... 4 (adaptive)
Weight generation scheme         WeightScheme... Becke
Basis function cutoff            BFCut       ... 1.0000e-11
Integration weight cutoff        WCut        ... 1.0000e-14
Angular grids for H and He will be reduced by one unit
Partially contracted basis set               ... on
Rotationally invariant grid construction     ... off

Total number of grid points                  ...   245289
Total number of batches                      ...     3876
Average number of points per batch           ...       63
Average number of grid points per atom       ...     2819
UseSFitting                                  ... on

Time for X-Grid setup             =    3.707 sec


--------------------
CPCM SOLVATION MODEL
--------------------
CPCM parameters:
  Epsilon                                         ...      35.6880
  Refrac                                          ...       1.3442
  Rsolv                                           ...       1.3000
  Surface type                                    ... GAUSSIAN VDW
  Epsilon function type                           ...         CPCM
Solvent:                                     ... ACETONITRILE
SMD-CDS solvent descriptors:
  Soln                                       ...    1.3442
  Soln25                                     ...    1.3416
  Sola                                       ...    0.0700
  Solb                                       ...    0.3200
  Solg                                       ...   41.2500
  Solc                                       ...    0.0000
  Solh                                       ...    0.0000
Radii:
 Radius for Au used is    4.1007 Bohr (=   2.1700 Ang.)
 Radius for C  used is    3.4960 Bohr (=   1.8500 Ang.)
 Radius for H  used is    2.2677 Bohr (=   1.2000 Ang.)
 Radius for N  used is    3.5716 Bohr (=   1.8900 Ang.)
Calculating surface                               ...        done! (  0.0s)
GEPOL surface points                              ...         4963
GEPOL Volume                                      ...    4500.8468
GEPOL Surface-area                                ...    2418.3788
Calculating surface distance matrix               ...        done! (  0.1s)
Performing Cholesky decomposition & store         ...        done! (  0.7s)
Overall time for CPCM initialization              ...                 0.9s
--------------
SCF ITERATIONS
--------------
ITER       Energy         Delta-E        Max-DP      RMS-DP      [F,P]     Damp
               ***  Starting incremental Fock matrix formation  ***
  0  -1976.3973534425   0.000000000000 0.19399977  0.00152304  0.4788620 0.7000
  1  -1976.9495754600  -0.552222017435 0.12001316  0.00111595  0.3520835 0.7000
  2  -1977.2270652504  -0.277489790417 0.12395151  0.00072370  0.2558387 0.7000
                               ***Turning on DIIS***
  3  -1977.3895177436  -0.162452493246 0.10452693  0.00048788  0.1827003 0.7000
  4  -1977.4995563741  -0.110038630497 0.08192522  0.00034381  0.1286383 0.7000
  5  -1977.5766569338  -0.077100559663 0.18464948  0.00081629  0.0895076 0.0000
  6  -1977.7568568689  -0.180199935133 0.00865507  0.00004731  0.0038463 0.0000
  7  -1977.7570642344  -0.000207365472 0.00626021  0.00002123  0.0024707 0.0000
  8  -1977.7571128511  -0.000048616697 0.00208133  0.00001331  0.0009363 0.0000
               *** Restarting incremental Fock matrix formation ***
                                   *** Resetting DIIS ***
  9  -1977.7586153825  -0.001502531438 0.00202499  0.00002689  0.0007018 0.0000
 10  -1977.7586178280  -0.000002445447 0.00116274  0.00000470  0.0007618 0.0000
 11  -1977.7586201466  -0.000002318650 0.00027715  0.00000207  0.0001743 0.0000
 12  -1977.7586203416  -0.000000194922 0.00006381  0.00000045  0.0000689 0.0000
 13  -1977.7586203360   0.000000005574 0.00002925  0.00000018  0.0000370 0.0000
 14  -1977.7586203461  -0.000000010147 0.00001314  0.00000009  0.0000133 0.0000
 15  -1977.7586203573  -0.000000011217 0.00000827  0.00000006  0.0000044 0.0000
 16  -1977.7586203619  -0.000000004599 0.00000334  0.00000002  0.0000034 0.0000
 17  -1977.7586203634  -0.000000001494 0.00000149  0.00000002  0.0000011 0.0000
                            ***DIIS convergence achieved***

               *****************************************************
               *                     SUCCESS                       *
               *           SCF CONVERGED AFTER  18 CYCLES          *
               *****************************************************

Old exchange energy                            =   -144.105363701 Eh
New exchange energy                            =   -144.105369515 Eh
Exchange energy change after final integration =     -0.000005815 Eh
Total energy after final integration           =  -1977.758626170 Eh
Final COS-X integration done in                =    29.718 sec

SMD CDS free energy correction energy :                -9.52261     Kcal/mol
Total Energy after SMD CDS correction =             -1977.773801409 Eh

----------------
TOTAL SCF ENERGY
----------------

Total Energy       :        -1977.77380141 Eh          -53817.96119 eV

Components:
Nuclear Repulsion  :         5371.62271811 Eh          146169.28526 eV
Electronic Energy  :        -7349.39651952 Eh         -199987.24645 eV
One Electron Energy:       -13425.33731175 Eh         -365322.00086 eV
Two Electron Energy:         6075.94079223 Eh          165334.75441 eV
Max COSX asymmetry :            0.00003539 Eh               0.00096 eV
CPCM Dielectric    :           -0.04385369 Eh              -1.19332 eV
SMD CDS (Gcds)     :           -0.01517524 Eh              -0.41294 eV

Virial components:
Potential Energy   :        -3848.32966634 Eh         -104718.37400 eV
Kinetic Energy     :         1870.55586493 Eh           50900.41281 eV
Virial Ratio       :            2.05731876


DFT components:
N(Alpha)           :      170.999784384669 electrons
N(Beta)            :      170.999784384669 electrons
N(Total)           :      341.999568769337 electrons
E(X)               :     -128.079508229347 Eh       
E(C)               :       -8.460593063588 Eh       
E(XC)              :     -136.540101292934 Eh       
DFET-embed. en.    :        0.000000000000 Eh       
CPCM Solvation Model Properties:
Surface-charge          :           -0.09208458
Charge-correction       :           -0.00027039 Eh              -0.00736 eV
Free-energy (cav+disp)  :           -0.01517524 Eh              -0.41294 eV

---------------
SCF CONVERGENCE
---------------

  Last Energy change         ...    8.3814e-09  Tolerance :   1.0000e-08
  Last MAX-Density change    ...    0.0000e+00  Tolerance :   1.0000e-07
  Last RMS-Density change    ...    0.0000e+00  Tolerance :   5.0000e-09
  Last DIIS Error            ...    2.6818e-07  Tolerance :   5.0000e-07

             **** THE GBW FILE WAS UPDATED (Au-alkyne_2-full_B2PLYP_def2SVP.gbw) ****
             **** DENSITY Au-alkyne_2-full_B2PLYP_def2SVP.scfp WAS UPDATED ****
             **** ENERGY FILE WAS UPDATED (Au-alkyne_2-full_B2PLYP_def2SVP.en.tmp) ****
             **** THE GBW FILE WAS UPDATED (Au-alkyne_2-full_B2PLYP_def2SVP.gbw) ****
             **** DENSITY Au-alkyne_2-full_B2PLYP_def2SVP.scfp WAS UPDATED ****
----------------
ORBITAL ENERGIES
----------------

  NO   OCC          E(Eh)            E(eV) 
   0   2.0000     -14.910241      -405.7283 
   1   2.0000     -14.893007      -405.2593 
   2   2.0000     -10.703075      -291.2455 
   3   2.0000     -10.703065      -291.2452 
   4   2.0000     -10.680154      -290.6218 
   5   2.0000     -10.664721      -290.2018 
   6   2.0000     -10.664687      -290.2009 
   7   2.0000     -10.663216      -290.1609 
   8   2.0000     -10.655792      -289.9588 
   9   2.0000     -10.647622      -289.7365 
  10   2.0000     -10.647621      -289.7365 
  11   2.0000     -10.643717      -289.6303 
  12   2.0000     -10.643699      -289.6298 
  13   2.0000     -10.638992      -289.5017 
  14   2.0000     -10.638977      -289.5013 
  15   2.0000     -10.636507      -289.4341 
  16   2.0000     -10.636504      -289.4340 
  17   2.0000     -10.635614      -289.4098 
  18   2.0000     -10.635601      -289.4094 
  19   2.0000     -10.633387      -289.3492 
  20   2.0000     -10.633340      -289.3479 
  21   2.0000     -10.632796      -289.3331 
  22   2.0000     -10.632796      -289.3331 
  23   2.0000     -10.629514      -289.2438 
  24   2.0000     -10.629513      -289.2438 
  25   2.0000     -10.627909      -289.2001 
  26   2.0000     -10.627906      -289.2000 
  27   2.0000     -10.627277      -289.1829 
  28   2.0000     -10.627270      -289.1827 
  29   2.0000     -10.627215      -289.1812 
  30   2.0000     -10.627189      -289.1805 
  31   2.0000     -10.626068      -289.1500 
  32   2.0000     -10.625699      -289.1400 
  33   2.0000     -10.625102      -289.1237 
  34   2.0000     -10.624579      -289.1095 
  35   2.0000     -10.624550      -289.1087 
  36   2.0000     -10.623858      -289.0899 
  37   2.0000     -10.623854      -289.0898 
  38   2.0000     -10.623242      -289.0731 
  39   2.0000     -10.623238      -289.0730 
  40   2.0000     -10.618646      -288.9480 
  41   2.0000     -10.604872      -288.5732 
  42   2.0000     -10.604867      -288.5731 
  43   2.0000     -10.604812      -288.5716 
  44   2.0000     -10.604806      -288.5714 
  45   2.0000     -10.603439      -288.5343 
  46   2.0000     -10.603435      -288.5341 
  47   2.0000      -4.489469      -122.1646 
  48   2.0000      -2.609336       -71.0036 
  49   2.0000      -2.600547       -70.7645 
  50   2.0000      -2.582341       -70.2691 
  51   2.0000      -1.121210       -30.5097 
  52   2.0000      -1.118011       -30.4226 
  53   2.0000      -0.993419       -27.0323 
  54   2.0000      -0.983677       -26.7672 
  55   2.0000      -0.970861       -26.4185 
  56   2.0000      -0.970669       -26.4133 
  57   2.0000      -0.967567       -26.3288 
  58   2.0000      -0.933659       -25.4062 
  59   2.0000      -0.929642       -25.2968 
  60   2.0000      -0.923081       -25.1183 
  61   2.0000      -0.920460       -25.0470 
  62   2.0000      -0.892396       -24.2833 
  63   2.0000      -0.874588       -23.7987 
  64   2.0000      -0.862986       -23.4831 
  65   2.0000      -0.861491       -23.4424 
  66   2.0000      -0.846740       -23.0410 
  67   2.0000      -0.846672       -23.0391 
  68   2.0000      -0.843140       -22.9430 
  69   2.0000      -0.835277       -22.7290 
  70   2.0000      -0.830981       -22.6122 
  71   2.0000      -0.816996       -22.2316 
  72   2.0000      -0.804510       -21.8918 
  73   2.0000      -0.775005       -21.0889 
  74   2.0000      -0.770424       -20.9643 
  75   2.0000      -0.770422       -20.9642 
  76   2.0000      -0.769826       -20.9480 
  77   2.0000      -0.761734       -20.7278 
  78   2.0000      -0.747876       -20.3507 
  79   2.0000      -0.741643       -20.1811 
  80   2.0000      -0.714713       -19.4483 
  81   2.0000      -0.709096       -19.2955 
  82   2.0000      -0.703891       -19.1538 
  83   2.0000      -0.694187       -18.8898 
  84   2.0000      -0.684492       -18.6260 
  85   2.0000      -0.676783       -18.4162 
  86   2.0000      -0.671705       -18.2780 
  87   2.0000      -0.667732       -18.1699 
  88   2.0000      -0.657265       -17.8851 
  89   2.0000      -0.634037       -17.2530 
  90   2.0000      -0.631005       -17.1705 
  91   2.0000      -0.619193       -16.8491 
  92   2.0000      -0.614406       -16.7188 
  93   2.0000      -0.608649       -16.5622 
  94   2.0000      -0.592583       -16.1250 
  95   2.0000      -0.589665       -16.0456 
  96   2.0000      -0.584898       -15.9159 
  97   2.0000      -0.581194       -15.8151 
  98   2.0000      -0.558778       -15.2051 
  99   2.0000      -0.554523       -15.0893 
 100   2.0000      -0.551885       -15.0176 
 101   2.0000      -0.550216       -14.9721 
 102   2.0000      -0.545202       -14.8357 
 103   2.0000      -0.532543       -14.4912 
 104   2.0000      -0.528950       -14.3935 
 105   2.0000      -0.527538       -14.3550 
 106   2.0000      -0.522202       -14.2098 
 107   2.0000      -0.519265       -14.1299 
 108   2.0000      -0.518340       -14.1048 
 109   2.0000      -0.515083       -14.0161 
 110   2.0000      -0.505507       -13.7556 
 111   2.0000      -0.505046       -13.7430 
 112   2.0000      -0.502183       -13.6651 
 113   2.0000      -0.501855       -13.6562 
 114   2.0000      -0.501381       -13.6433 
 115   2.0000      -0.499318       -13.5871 
 116   2.0000      -0.497544       -13.5389 
 117   2.0000      -0.492250       -13.3948 
 118   2.0000      -0.491254       -13.3677 
 119   2.0000      -0.489308       -13.3148 
 120   2.0000      -0.483986       -13.1699 
 121   2.0000      -0.478307       -13.0154 
 122   2.0000      -0.478294       -13.0150 
 123   2.0000      -0.473114       -12.8741 
 124   2.0000      -0.471397       -12.8274 
 125   2.0000      -0.469637       -12.7795 
 126   2.0000      -0.459942       -12.5157 
 127   2.0000      -0.458387       -12.4733 
 128   2.0000      -0.453946       -12.3525 
 129   2.0000      -0.453523       -12.3410 
 130   2.0000      -0.448593       -12.2068 
 131   2.0000      -0.447065       -12.1652 
 132   2.0000      -0.442912       -12.0523 
 133   2.0000      -0.441294       -12.0082 
 134   2.0000      -0.433852       -11.8057 
 135   2.0000      -0.429700       -11.6927 
 136   2.0000      -0.429602       -11.6901 
 137   2.0000      -0.424926       -11.5628 
 138   2.0000      -0.424324       -11.5464 
 139   2.0000      -0.419802       -11.4234 
 140   2.0000      -0.416475       -11.3329 
 141   2.0000      -0.416257       -11.3269 
 142   2.0000      -0.415654       -11.3105 
 143   2.0000      -0.414456       -11.2779 
 144   2.0000      -0.407904       -11.0996 
 145   2.0000      -0.407133       -11.0787 
 146   2.0000      -0.406396       -11.0586 
 147   2.0000      -0.393975       -10.7206 
 148   2.0000      -0.392873       -10.6906 
 149   2.0000      -0.385718       -10.4959 
 150   2.0000      -0.380623       -10.3573 
 151   2.0000      -0.379112       -10.3162 
 152   2.0000      -0.378995       -10.3130 
 153   2.0000      -0.375336       -10.2134 
 154   2.0000      -0.371551       -10.1104 
 155   2.0000      -0.367591       -10.0027 
 156   2.0000      -0.358627        -9.7587 
 157   2.0000      -0.356905        -9.7119 
 158   2.0000      -0.347119        -9.4456 
 159   2.0000      -0.325166        -8.8482 
 160   2.0000      -0.318053        -8.6547 
 161   2.0000      -0.302979        -8.2445 
 162   2.0000      -0.298840        -8.1319 
 163   2.0000      -0.293075        -7.9750 
 164   2.0000      -0.290210        -7.8970 
 165   2.0000      -0.288655        -7.8547 
 166   2.0000      -0.287160        -7.8140 
 167   2.0000      -0.267096        -7.2680 
 168   2.0000      -0.259178        -7.0526 
 169   2.0000      -0.245892        -6.6911 
 170   2.0000      -0.228830        -6.2268 
[...]
   166a -> 171a  :     0.015282 
   166a -> 176a  :     0.010613 
   167a -> 172a  :     0.052907 
   167a -> 175a  :     0.042095 
   168a -> 171a  :     0.014113 
   168a -> 173a  :     0.205581 
   168a -> 174a  :     0.020787 
   168a -> 176a  :     0.050315 
   168a -> 180a  :     0.016559 
   170a -> 175a  :     0.091369 

STATE 36:  E=   0.186494 au      5.075 eV    40930.7 cm**-1 <S**2> =   0.000000
   158a -> 172a  :     0.031370 
   162a -> 172a  :     0.183838 
   163a -> 172a  :     0.020014 
   165a -> 172a  :     0.176837 
   166a -> 176a  :     0.017098 
   167a -> 172a  :     0.459831 
   168a -> 173a  :     0.019810 
   170a -> 172a  :     0.031224 

STATE 37:  E=   0.210055 au      5.716 eV    46101.8 cm**-1 <S**2> =   0.000000
   159a -> 173a  :     0.012701 
   159a -> 174a  :     0.039588 
   164a -> 179a  :     0.047044 
   165a -> 174a  :     0.012025 
   165a -> 176a  :     0.098836 
   167a -> 173a  :     0.033552 
   167a -> 174a  :     0.071234 
   167a -> 176a  :     0.028134 
   167a -> 182a  :     0.021940 
   169a -> 177a  :     0.058109 
   169a -> 183a  :     0.063351 
   170a -> 174a  :     0.016562 
   170a -> 176a  :     0.023860 
   170a -> 180a  :     0.017506 
   170a -> 181a  :     0.272453 
   170a -> 182a  :     0.029787 

STATE 38:  E=   0.209422 au      5.699 eV    45962.9 cm**-1 <S**2> =   0.000000
   159a -> 174a  :     0.010327 
   162a -> 176a  :     0.019093 
   164a -> 179a  :     0.011582 
   165a -> 173a  :     0.028761 
   165a -> 176a  :     0.173201 
   167a -> 171a  :     0.021264 
   167a -> 173a  :     0.018111 
   167a -> 174a  :     0.041955 
   167a -> 176a  :     0.018447 
   167a -> 180a  :     0.031516 
   167a -> 181a  :     0.023817 
   167a -> 182a  :     0.037429 
   167a -> 190a  :     0.024414 
   167a -> 191a  :     0.041005 
   169a -> 177a  :     0.159694 
   169a -> 183a  :     0.018929 
   170a -> 176a  :     0.015128 
   170a -> 180a  :     0.014288 
   170a -> 181a  :     0.012547 
   170a -> 182a  :     0.086118 
   170a -> 191a  :     0.016071 

STATE 39:  E=   0.201446 au      5.482 eV    44212.2 cm**-1 <S**2> =   0.000000
   167a -> 173a  :     0.012647 
   167a -> 174a  :     0.025563 
   169a -> 177a  :     0.721273 
   169a -> 179a  :     0.014000 
   170a -> 175a  :     0.010388 
   170a -> 181a  :     0.047900 
   170a -> 182a  :     0.036366 

STATE 40:  E=   0.191566 au      5.213 eV    42043.9 cm**-1 <S**2> =   0.000000
   123a -> 175a  :     0.012749 
   158a -> 175a  :     0.050841 
   160a -> 175a  :     0.129354 
   162a -> 172a  :     0.014115 
   163a -> 175a  :     0.017177 
   163a -> 178a  :     0.014195 
   165a -> 175a  :     0.041771 
   167a -> 175a  :     0.175077 
   168a -> 173a  :     0.120830 
   168a -> 176a  :     0.041564 
   168a -> 180a  :     0.018731 
   169a -> 177a  :     0.025725 
   170a -> 175a  :     0.253306 


-------------------------
TD-DFT-EXCITATION SPECTRA
-------------------------

Center of mass = ( -0.7146, -0.0002, -0.0012)
Calculating the Dipole integrals                  ... done
Transforming integrals                            ... done
Calculating the Linear Momentum integrals         ... done
Transforming integrals                            ... done
Calculating angular momentum integrals            ... done
Transforming integrals                            ... done

-----------------------------------------------------------------------------
         ABSORPTION SPECTRUM VIA TRANSITION ELECTRIC DIPOLE MOMENTS
-----------------------------------------------------------------------------
State   Energy    Wavelength  fosc         T2        TX        TY        TZ  
        (cm-1)      (nm)                 (au**2)    (au)      (au)      (au) 
-----------------------------------------------------------------------------
   1   28100.0    355.9   0.095248471   1.11591   0.00001   1.05635  -0.00547
   2   28006.8    357.1   0.429080321   5.04371  -2.24582   0.00138  -0.00063
   3   30762.7    325.1   0.379869401   4.06523  -2.01623  -0.00546  -0.00424
   4   31416.3    318.3   0.177296648   1.85789  -1.36303  -0.00589   0.00121
   5   35425.2    282.3   0.322750999   2.99937  -1.73182   0.00118   0.01270
   6   34375.2    290.9   0.089156960   0.85386  -0.01774  -0.92361   0.02209
   7   36495.8    274.0   0.550501843   4.96583  -0.03489  -2.22727  -0.06240
   8   31374.1    318.7   0.082163164   0.86215   0.92191  -0.11054   0.00192
   9   35134.8    284.6   0.086598252   0.81142   0.00745  -0.89883  -0.05891
  10   35357.3    282.8   0.008766123   0.08162  -0.28566   0.00425   0.00155
  11   32055.2    312.0   0.001060110   0.01089   0.00000   0.08902  -0.05443
  12   35916.8    278.4   0.007853121   0.07198   0.00165   0.17921  -0.19966
  13   36782.2    271.9   0.001302588   0.01166   0.10796  -0.00170   0.00056
  14   34017.1    294.0   0.010381425   0.10047  -0.00218   0.31695   0.00325
  15   37104.5    269.5   0.025132235   0.22299  -0.47218   0.00534   0.00205
  16   36633.3    273.0   0.020202502   0.18155   0.42607  -0.00300  -0.00235
  17   39153.0    255.4   0.102950315   0.86564  -0.93039   0.00326   0.00084
  18   34526.0    289.6   0.000644165   0.00614   0.00113  -0.04374  -0.06502
  19   38463.6    260.0   0.131921974   1.12913   0.00235  -1.06053  -0.06632
  20   38607.5    259.0   0.007526795   0.06418   0.00493   0.24882  -0.04737
  21   41069.5    243.5   0.496582767   3.98059  -0.00017   1.99472  -0.04103
  22   40603.0    246.3   0.092382301   0.74904   0.86457   0.03933   0.00345
  23   40237.4    248.5   0.003806260   0.03114   0.01943  -0.13276  -0.11463
  24   40311.9    248.1   1.221680718   9.97700   0.00871  -3.15658  -0.11376
  25   39513.4    253.1   0.015186489   0.12653   0.35568   0.00386  -0.00272
  26   38432.5    260.2   0.000001124   0.00001  -0.00100   0.00293   0.00015
  27   42500.1    235.3   0.018597861   0.14406  -0.00321  -0.37520   0.05722
  28   41181.7    242.8   0.005136024   0.04106  -0.20251   0.00678  -0.00012
  29   42764.6    233.8   0.231390440   1.78130   1.26169  -0.42715   0.08347
  30   42101.1    237.5   0.324772466   2.53958  -0.25460  -1.50665   0.45251
  31   43355.1    230.7   0.360874426   2.74026  -0.08610  -1.64216  -0.19014
  32   42037.3    237.9   0.081261706   0.63640  -0.79770  -0.00863   0.00076
  33   42641.8    234.5   0.272240760   2.10181  -0.01737   1.44892   0.04627
  34   41433.5    241.4   0.270963268   2.15295  -1.46723  -0.01178   0.00719
  35   42102.5    237.5   0.026472009   0.20699   0.02156   0.45383   0.02379
  36   40930.7    244.3   0.018506034   0.14885  -0.00055   0.38293   0.04702
  37   46101.8    216.9   0.012792572   0.09135   0.30217  -0.00587   0.00274
  38   45962.9    217.6   0.002894550   0.02073   0.14163   0.02596  -0.00075
  39   44212.2    226.2   0.009707387   0.07228   0.18706   0.19297  -0.00737
  40   42043.9    237.8   0.117027588   0.91635   0.03795  -0.95567   0.04007

-----------------------------------------------------------------------------
         ABSORPTION SPECTRUM VIA TRANSITION VELOCITY DIPOLE MOMENTS
-----------------------------------------------------------------------------
State   Energy    Wavelength   fosc        P2         PX        PY        PZ  
        (cm-1)      (nm)                 (au**2)     (au)      (au)      (au) 
-----------------------------------------------------------------------------
   1   28100.0    355.9   0.115856762   0.02225  -0.00000  -0.14916   0.00068
   2   28006.8    357.1   0.563994700   0.10796   0.32857  -0.00022   0.00012
   3   30762.7    325.1   0.502943396   0.10574   0.32518   0.00087   0.00072
   4   31416.3    318.3   0.210479011   0.04519   0.21258   0.00093  -0.00022
   5   35425.2    282.3   0.350209230   0.08479   0.29118  -0.00020  -0.00213
   6   34375.2    290.9   0.096520087   0.02268   0.00309   0.15051  -0.00358
   7   36495.8    274.0   0.562108819   0.14021   0.00610   0.37423   0.01089
   8   31374.1    318.7   0.122035461   0.02617  -0.16071   0.01847  -0.00030
   9   35134.8    284.6   0.109002973   0.02617  -0.00132   0.16130   0.01246
  10   35357.3    282.8   0.011074812   0.00268   0.05173  -0.00076  -0.00028
  11   32055.2    312.0   0.001925860   0.00042   0.00002  -0.01562   0.01334
  12   35916.8    278.4   0.011864691   0.00291  -0.00031  -0.03370   0.04215
  13   36782.2    271.9   0.001527572   0.00038  -0.01959   0.00034  -0.00015
  14   34017.1    294.0   0.015520074   0.00361   0.00040  -0.06006  -0.00086
  15   37104.5    269.5   0.029473933   0.00747   0.08645  -0.00102  -0.00036
  16   36633.3    273.0   0.022758061   0.00570  -0.07548   0.00057   0.00041
  17   39153.0    255.4   0.105346947   0.02819   0.16790  -0.00059  -0.00004
  18   34526.0    289.6   0.001180368   0.00028  -0.00017   0.00838   0.01443
  19   38463.6    260.0   0.168746747   0.04436  -0.00046   0.21021   0.01317
  20   38607.5    259.0   0.009487738   0.00250  -0.00086  -0.04850   0.01225
  21   41069.5    243.5   0.560371967   0.15729   0.00011  -0.39646   0.01043
  22   40603.0    246.3   0.115355737   0.03201  -0.17873  -0.00806  -0.00067
  23   40237.4    248.5   0.006626734   0.00182  -0.00401   0.03580   0.02291
  24   40311.9    248.1   1.449581827   0.39938  -0.00182   0.63158   0.02190
  25   39513.4    253.1   0.020849872   0.00563  -0.07503  -0.00079   0.00066
  26   38432.5    260.2   0.000001627   0.00000   0.00024  -0.00061  -0.00004
  27   42500.1    235.3   0.021037133   0.00611   0.00079   0.07817  -0.00039
  28   41181.7    242.8   0.006737241   0.00190   0.04352  -0.00138   0.00001
  29   42764.6    233.8   0.276824161   0.08091  -0.26928   0.08987  -0.01787
  30   42101.1    237.5   0.391142747   0.11255   0.05434   0.31657  -0.09685
  31   43355.1    230.7   0.413372804   0.12249   0.01838   0.34709   0.04096
  32   42037.3    237.9   0.102414633   0.02942   0.17152   0.00185  -0.00017
  33   42641.8    234.5   0.328035470   0.09560   0.00349  -0.30899  -0.01069
  34   41433.5    241.4   0.330551449   0.09360   0.30593   0.00253  -0.00147
  35   42102.5    237.5   0.034844984   0.01003  -0.00459  -0.09987  -0.00569
  36   40930.7    244.3   0.024133289   0.00675   0.00011  -0.08176  -0.00819
  37   46101.8    216.9   0.017205451   0.00542  -0.07361   0.00132  -0.00061
  38   45962.9    217.6   0.003298079   0.00104  -0.03165  -0.00585   0.00013
  39   44212.2    226.2   0.011633136   0.00352  -0.03967  -0.04404   0.00139
  40   42043.9    237.8   0.166324128   0.04779  -0.00808   0.21833  -0.00768

-------------------------------------------------------------------
                             CD SPECTRUM
-------------------------------------------------------------------
State  Energy     Wavelength     R         MX        MY        MZ   
       (cm-1)       (nm)     (1e40*cgs)   (au)      (au)      (au)  
-------------------------------------------------------------------
   1   28100.0    355.9     -4.69102  -0.01272  -0.02141  -2.31716
   2   28006.8    357.1    -33.48015   0.03163   0.00811  -0.00235
   3   30762.7    325.1      7.65203  -0.00808   0.00878   0.00173
   4   31416.3    318.3     -9.51935   0.01480   0.00492   0.00569
   5   35425.2    282.3     -5.06457   0.00620   0.01005  -0.00089
   6   34375.2    290.9     19.32236  -0.00162  -0.00703   1.56030
   7   36495.8    274.0     -5.06346   0.00041   0.03842  -1.19951
   8   31374.1    318.7    -29.49054  -0.06805  -0.00201  -0.02187
   9   35134.8    284.6    -17.46936  -0.00131  -0.00549   0.71266
  10   35357.3    282.8      2.29093  -0.01701   0.00178  -0.00390
  11   32055.2    312.0      2.45359  -0.00008   0.00104  -0.09391
  12   35916.8    278.4     27.35253   0.00205   0.04445  -0.25067
  13   36782.2    271.9      3.92856   0.07717  -0.00085   0.00020
  14   34017.1    294.0     -0.21484   0.00078  -0.00371   0.22150
  15   37104.5    269.5      9.00698  -0.04047   0.00220  -0.00856
  16   36633.3    273.0      1.40269   0.00699  -0.00196   0.00376
  17   39153.0    255.4     42.88721  -0.09777   0.00345  -0.00383
  18   34526.0    289.6     -2.13753   0.00073   0.00440   0.06678
  19   38463.6    260.0     25.66012  -0.00055   0.03360  -1.35801
  20   38607.5    259.0     -9.99245   0.00336  -0.05929   0.13635
  21   41069.5    243.5    -10.59727  -0.00111  -0.05919  -2.32971
  22   40603.0    246.3     35.24242   0.08646  -0.00632   0.07354
  23   40237.4    248.5    195.53720   0.00067   0.04422  -3.66939
  24   40311.9    248.1    -128.46471   0.00227   0.08931  -0.08266
  25   39513.4    253.1      6.85041   0.04085  -0.00233  -0.00396
  26   38432.5    260.2     -0.00004   0.00007  -0.00012   0.00234
  27   42500.1    235.3     -0.16311  -0.00029   0.05478   0.35309
  28   41181.7    242.8     -4.37217   0.04583   0.00097  -0.00680
  29   42764.6    233.8    -17.77757  -0.01883  -0.02352  -0.28746
  30   42101.1    237.5    -113.65816  -0.00080  -0.10061  -0.86819
  31   43355.1    230.7     81.83806  -0.00229   0.07842  -1.58924
  32   42037.3    237.9     -9.87471   0.02619   0.00545  -0.00639
  33   42641.8    234.5     12.46020   0.00784   0.04183  -0.73553
  34   41433.5    241.4    -75.10684   0.10848   0.00834  -0.00577
  35   42102.5    237.5     -6.15650  -0.00588   0.02602  -1.03996
  36   40930.7    244.3    -19.99932  -0.00316  -0.01367  -0.79098
  37   46101.8    216.9      1.62650   0.01132  -0.00289   0.00467
  38   45962.9    217.6      0.41675   0.00649  -0.00191  -0.01984
  39   44212.2    226.2     -0.92224  -0.02054   0.00484  -0.12921
  40   42043.9    237.8     27.54706  -0.00769  -0.03573   0.61344

-------------------------------------------------------------------
         CD SPECTRUM VIA TRANSITION VELOCITY DIPOLE MOMENTS        
-------------------------------------------------------------------
State  Energy     Wavelength     R         MX        MY        MZ   
       (cm-1)       (nm)     (1e40*cgs)   (au)      (au)      (au)  
-------------------------------------------------------------------
   1   28100.0    355.9     -5.93225  -0.01272  -0.02141  -2.31716
   2   28006.8    357.1    -38.38358   0.03163   0.00811  -0.00235
   3   30762.7    325.1      8.80485  -0.00808   0.00878   0.00173
   4   31416.3    318.3    -10.37158   0.01480   0.00492   0.00569
   5   35425.2    282.3     -5.27563   0.00620   0.01005  -0.00089
   6   34375.2    290.9     20.03775  -0.00162  -0.00703   1.56030
   7   36495.8    274.0     -3.75172   0.00041   0.03842  -1.19951
   8   31374.1    318.7    -35.96398  -0.06805  -0.00201  -0.02187
   9   35134.8    284.6    -23.54368  -0.00131  -0.00549   0.71266
  10   35357.3    282.8      2.57492  -0.01701   0.00178  -0.00390
  11   32055.2    312.0      4.09612  -0.00008   0.00104  -0.09391
  12   35916.8    278.4     34.75495   0.00205   0.04445  -0.25067
  13   36782.2    271.9      4.25425   0.07717  -0.00085   0.00020
  14   34017.1    294.0     -0.09988   0.00078  -0.00371   0.22150
  15   37104.5    269.5      9.75446  -0.04047   0.00220  -0.00856
  16   36633.3    273.0      1.48904   0.00699  -0.00196   0.00376
  17   39153.0    255.4     43.38473  -0.09777   0.00345  -0.00383
  18   34526.0    289.6     -2.99893   0.00073   0.00440   0.06678
  19   38463.6    260.0     29.10543  -0.00055   0.03360  -1.35801
  20   38607.5    259.0    -12.17728   0.00336  -0.05929   0.13635
  21   41069.5    243.5      2.09183  -0.00111  -0.05919  -2.32971
  22   40603.0    246.3     39.37447   0.08646  -0.00632   0.07354
  23   40237.4    248.5    212.07668   0.00067   0.04422  -3.66939
  24   40311.9    248.1    -140.12501   0.00227   0.08931  -0.08266
  25   39513.4    253.1      8.02772   0.04085  -0.00233  -0.00396
  26   38432.5    260.2     -0.00002   0.00007  -0.00012   0.00234
  27   42500.1    235.3    -10.08670  -0.00029   0.05478   0.35309
  28   41181.7    242.8     -5.00832   0.04583   0.00097  -0.00680
  29   42764.6    233.8    -19.58820  -0.01883  -0.02352  -0.28746
  30   42101.1    237.5    -128.26436  -0.00080  -0.10061  -0.86819
  31   43355.1    230.7     90.50066  -0.00229   0.07842  -1.58924
  32   42037.3    237.9    -11.08579   0.02619   0.00545  -0.00639
  33   42641.8    234.5     12.22263   0.00784   0.04183  -0.73553
  34   41433.5    241.4    -82.95618   0.10848   0.00834  -0.00577
  35   42102.5    237.5     -8.23386  -0.00588   0.02602  -1.03996
  36   40930.7    244.3    -19.20281  -0.00316  -0.01367  -0.79098
  37   46101.8    216.9      1.88506   0.01132  -0.00289   0.00467
  38   45962.9    217.6      0.44294   0.00649  -0.00191  -0.01984
  39   44212.2    226.2     -0.98840  -0.02054   0.00484  -0.12921
  40   42043.9    237.8     30.64009  -0.00769  -0.03573   0.61344

Total run time:    10720.583 sec

           *** ORCA-CIS/TD-DFT FINISHED WITHOUT ERROR ***

Maximum memory used throughout the entire CIS-calculation: 4311.5 MB

-----------------------
CIS/TD-DFT TOTAL ENERGY
-----------------------

    E(SCF)  =  -1977.773801409 Eh
    DE(CIS) =      0.128032928 Eh (Root  1)
    ----------------------------- ---------
    E(tot)  =  -1977.645768482 Eh


-------------------------   --------------------
FINAL SINGLE POINT ENERGY     -1977.645768481543
-------------------------   --------------------


                            ***************************************
                            *     ORCA property calculations      *
                            ***************************************


  WARNING: The energy has been calculated at the MP2 level but the densities
           used in the property calculations are still SCF densities
           MP2 response densities have not been calculated 
           use %mp2 Density relaxed end
           or  %mp2 Density unrelaxed end

                                    ---------------------
                                    Active property flags
                                    ---------------------
   (+) Dipole Moment


------------------------------------------------------------------------------
                       ORCA ELECTRIC PROPERTIES CALCULATION
------------------------------------------------------------------------------

Dipole Moment Calculation                       ... on
Quadrupole Moment Calculation                   ... off
Polarizability Calculation                      ... off
GBWName                                         ... Au-alkyne_2-full_B2PLYP_def2SVP.gbw
Electron density                                ... Au-alkyne_2-full_B2PLYP_def2SVP.scfp
The origin for moment calculation is the CENTER OF MASS  = (-0.714600, -0.000155 -0.001243)

-------------
DIPOLE MOMENT
-------------
                                X             Y             Z
Electronic contribution:   -764.79881      -0.12574      -1.23507
Nuclear contribution   :    760.98124       0.12762       1.26625
                        -----------------------------------------
Total Dipole Moment    :     -3.81756       0.00187       0.03118
                        -----------------------------------------
Magnitude (a.u.)       :      3.81769
Magnitude (Debye)      :      9.70380



--------------------
Rotational spectrum 
--------------------
 
Rotational constants in cm-1:     0.003106     0.000590     0.000500 
Rotational constants in MHz :    93.110247    17.673572    14.995213 

 Dipole components along the rotational axes: 
x,y,z [a.u.] :    -3.817561     0.001901     0.031252 
x,y,z [Debye]:    -9.703470     0.004833     0.079437 

 

Timings for individual modules:

Sum of individual times         ...    11184.370 sec (= 186.406 min)
GTO integral calculation        ...        2.104 sec (=   0.035 min)   0.0 %
SCF iterations                  ...      268.290 sec (=   4.472 min)   2.4 %
MP2 module                      ...      191.367 sec (=   3.189 min)   1.7 %
CIS module                      ...    10722.609 sec (= 178.710 min)  95.9 %
                             ****ORCA TERMINATED NORMALLY****
TOTAL RUN TIME: 0 days 3 hours 6 minutes 27 seconds 103 msec
