
                                 *****************
                                 * O   R   C   A *
                                 *****************

                                            #,                                       
                                            ###                                      
                                            ####                                     
                                            #####                                    
                                            ######                                   
                                           ########,                                 
                                     ,,################,,,,,                         
                               ,,#################################,,                 
                          ,,##########################################,,             
                       ,#########################################, ''#####,          
                    ,#############################################,,   '####,        
                  ,##################################################,,,,####,       
                ,###########''''           ''''###############################       
              ,#####''   ,,,,##########,,,,          '''####'''          '####       
            ,##' ,,,,###########################,,,                        '##       
           ' ,,###''''                  '''############,,,                           
         ,,##''                                '''############,,,,        ,,,,,,###''
      ,#''                                            '''#######################'''  
     '                                                          ''''####''''         
             ,#######,   #######,   ,#######,      ##                                
            ,#'     '#,  ##    ##  ,#'     '#,    #''#        ######   ,####,        
            ##       ##  ##   ,#'  ##            #'  '#       #        #'  '#        
            ##       ##  #######   ##           ,######,      #####,   #    #        
            '#,     ,#'  ##    ##  '#,     ,#' ,#      #,         ##   #,  ,#        
             '#######'   ##     ##  '#######'  #'      '#     #####' # '####'        



                  #######################################################
                  #                        -***-                        #
                  #          Department of theory and spectroscopy      #
                  #    Directorship and core code : Frank Neese         #
                  #        Max Planck Institute fuer Kohlenforschung    #
                  #                Kaiser Wilhelm Platz 1               #
                  #                 D-45470 Muelheim/Ruhr               #
                  #                      Germany                        #
                  #                                                     #
                  #                  All rights reserved                #
                  #                        -***-                        #
                  #######################################################


                         Program Version 5.0.4 -  RELEASE  -


 With contributions from (in alphabetic order):
   Daniel Aravena         : Magnetic Suceptibility
   Michael Atanasov       : Ab Initio Ligand Field Theory (pilot matlab implementation)
   Alexander A. Auer      : GIAO ZORA, VPT2 properties, NMR spectrum
   Ute Becker             : Parallelization
   Giovanni Bistoni       : ED, misc. LED, open-shell LED, HFLD
   Martin Brehm           : Molecular dynamics
   Dmytro Bykov           : SCF Hessian
   Vijay G. Chilkuri      : MRCI spin determinant printing, contributions to CSF-ICE
   Dipayan Datta          : RHF DLPNO-CCSD density
   Achintya Kumar Dutta   : EOM-CC, STEOM-CC
   Dmitry Ganyushin       : Spin-Orbit,Spin-Spin,Magnetic field MRCI
   Miquel Garcia          : C-PCM and meta-GGA Hessian, CC/C-PCM, Gaussian charge scheme
   Yang Guo               : DLPNO-NEVPT2, F12-NEVPT2, CIM, IAO-localization
   Andreas Hansen         : Spin unrestricted coupled pair/coupled cluster methods
   Benjamin Helmich-Paris : MC-RPA, TRAH-SCF, COSX integrals
   Lee Huntington         : MR-EOM, pCC
   Robert Izsak           : Overlap fitted RIJCOSX, COSX-SCS-MP3, EOM
   Marcus Kettner         : VPT2
   Christian Kollmar      : KDIIS, OOCD, Brueckner-CCSD(T), CCSD density, CASPT2, CASPT2-K
   Simone Kossmann        : Meta GGA functionals, TD-DFT gradient, OOMP2, MP2 Hessian
   Martin Krupicka        : Initial AUTO-CI
   Lucas Lang             : DCDCAS
   Marvin Lechner         : AUTO-CI (C++ implementation), FIC-MRCC
   Dagmar Lenk            : GEPOL surface, SMD
   Dimitrios Liakos       : Extrapolation schemes; Compound Job, initial MDCI parallelization
   Dimitrios Manganas     : Further ROCIS development; embedding schemes
   Dimitrios Pantazis     : SARC Basis sets
   Anastasios Papadopoulos: AUTO-CI, single reference methods and gradients
   Taras Petrenko         : DFT Hessian,TD-DFT gradient, ASA, ECA, R-Raman, ABS, FL, XAS/XES, NRVS
   Peter Pinski           : DLPNO-MP2, DLPNO-MP2 Gradient
   Christoph Reimann      : Effective Core Potentials
   Marius Retegan         : Local ZFS, SOC
   Christoph Riplinger    : Optimizer, TS searches, QM/MM, DLPNO-CCSD(T), (RO)-DLPNO pert. Triples
   Tobias Risthaus        : Range-separated hybrids, TD-DFT gradient, RPA, STAB
   Michael Roemelt        : Original ROCIS implementation
   Masaaki Saitow         : Open-shell DLPNO-CCSD energy and density
   Barbara Sandhoefer     : DKH picture change effects
   Avijit Sen             : IP-ROCIS
   Kantharuban Sivalingam : CASSCF convergence, NEVPT2, FIC-MRCI
   Bernardo de Souza      : ESD, SOC TD-DFT
   Georgi Stoychev        : AutoAux, RI-MP2 NMR, DLPNO-MP2 response
   Willem Van den Heuvel  : Paramagnetic NMR
   Boris Wezisla          : Elementary symmetry handling
   Frank Wennmohs         : Technical directorship


 We gratefully acknowledge several colleagues who have allowed us to
 interface, adapt or use parts of their codes:
   Stefan Grimme, W. Hujo, H. Kruse, P. Pracht,  : VdW corrections, initial TS optimization,
                  C. Bannwarth, S. Ehlert          DFT functionals, gCP, sTDA/sTD-DF
   Ed Valeev, F. Pavosevic, A. Kumar             : LibInt (2-el integral package), F12 methods
   Garnet Chan, S. Sharma, J. Yang, R. Olivares  : DMRG
   Ulf Ekstrom                                   : XCFun DFT Library
   Mihaly Kallay                                 : mrcc  (arbitrary order and MRCC methods)
   Jiri Pittner, Ondrej Demel                    : Mk-CCSD
   Frank Weinhold                                : gennbo (NPA and NBO analysis)
   Christopher J. Cramer and Donald G. Truhlar   : smd solvation model
   Lars Goerigk                                  : TD-DFT with DH, B97 family of functionals
   V. Asgeirsson, H. Jonsson                     : NEB implementation
   FAccTs GmbH                                   : IRC, NEB, NEB-TS, DLPNO-Multilevel, CI-OPT
                                                   MM, QMMM, 2- and 3-layer-ONIOM, Crystal-QMMM,
                                                   LR-CPCM, SF, NACMEs, symmetry and pop. for TD-DFT,
                                                   nearIR, NL-DFT gradient (VV10), updates on ESD,
                                                   ML-optimized integration grids
   S Lehtola, MJT Oliveira, MAL Marques          : LibXC Library
   Liviu Ungur et al                             : ANISO software


 Your calculation uses the libint2 library for the computation of 2-el integrals
 For citations please refer to: http://libint.valeyev.net

 Your ORCA version has been built with support for libXC version: 5.1.0
 For citations please refer to: https://tddft.org/programs/libxc/

 This ORCA versions uses:
   CBLAS   interface :  Fast vector & matrix operations
   LAPACKE interface :  Fast linear algebra routines
   SCALAPACK package :  Parallel linear algebra routines
   Shared memory     :  Shared parallel matrices
   BLAS/LAPACK       :  OpenBLAS 0.3.15  USE64BITINT DYNAMIC_ARCH NO_AFFINITY Zen SINGLE_THREADED
        Core in use  :  Zen
   Copyright (c) 2011-2014, The OpenBLAS Project


Your calculation utilizes the SMD solvation module
Please cite in your paper:
A.V. Marenich, C.J. Cramer, D.G. Truhlar J. Phys. Chem. B, 113, (2009), 6378 

================================================================================

cite the ECPs for Au [Def2-ECP] as follows:
Ce-Yb(ecp-28): M. Dolg, H. Stoll, H.Preuss, J. Chem. Phys., 1989, 90, 1730-1734.
Y-Cd(ecp-28), Hf-Hg(ecp-46): D. Andrae,U. Haeussermann, M. Dolg, H. Stoll, H. Preuss, Theor. Chim. Acta, 1990, 77, 123-141.
In-Sb(ecp-28), Tl-Bi(ecp-46): B. Metz, H. Stoll, M. Dolg, J. Chem. Phys., 2000, 113, 2563-2569.
Te-Xe(ecp-28), Po-Rn(ecp-46): K. A. Peterson, D. Figgen, E. Goll, H. Stoll, M. Dolg, J. Chem. Phys., 2003, 119, 11113-11123.
Rb(ecp-28), Cs(ecp-46): T. Leininger, A. Nicklass, W. Kuechle, H. Stoll, M. Dolg, A. Bergner, Chem. Phys. Lett., 1996, 255, 274-280.
Sr(ecp-28), Ba(ecp-46): M. Kaupp, P. V. Schleyer, H. Stoll and H. Preuss, J. Chem. Phys., 1991, 94, 1360-1366.
La(ecp-46): M. Dolg, H. Stoll, A. Savin, H. Preuss, Theor. Chim. Acta, 1989, 75, 173-194.
Lu(ecp-28): X. Cao, M. Dolg, J. Chem. Phys., 2001, 115, 7348-7355.

ECP parameters for Au [Def2-ECP] have been obtained from:
TURBOMOLE (7.0.2)

----- Orbital basis set information -----
Your calculation utilizes the basis: def2-SVP
   F. Weigend and R. Ahlrichs, Phys. Chem. Chem. Phys. 7, 3297 (2005).

----- AuxJ basis set information -----
Your calculation utilizes the auxiliary basis: def2/J
   F. Weigend, Phys. Chem. Chem. Phys. 8, 1057 (2006).

----- AuxC basis set information -----
Your calculation utilizes the auxiliary basis: def2-SVP/C
  H-La, Hf-Rn : A. Hellweg, C. Hattig, S. Hofener and W. Klopper, Theor. Chem. Acc. 117, 587 (2007).
        Ce-Lu : J. Chmela and M. E. Harding, Mol. Phys. (2018).

================================================================================
                                        WARNINGS
                       Please study these warnings very carefully!
================================================================================

INFO   : Checking CIS options ...
  ===> : (D) CORRECTION FOUND - SETTING MODE=3
  ===> : JK MODE FOUND - ACTIVATING RI-MP2 CODE
  ===> : MP2 AND CIS FOUND - CHECKING
WARNING: CIS(D) and MP2 runs must have the same orbital window
  ===> : adjusting orbital windows

WARNING: No MP2 level density has been requested!
         To caclulate MP2 level properties use
         %mp2 Density relaxed end
         or
         %mp2 Density unrelaxed end
         Otherwise for double-hybrid DFT only the energy is correct!

WARNING: The frozen-core approximation is turned on by default for 
         the MP2 part of double-hybrid DFT.

WARNING:  You are using a Range-Separated Double Hybrid functional with Doubles Correction 
          Changing Mode to RPA_AOINTS 


WARNING: CIS/ROCIS methods need fully converged wavefunctions
  ===> : Setting SCFConvForced true
         You can overwrite this default with %scf ConvForced false 


INFO   : the flag for use of the SHARK integral package has been found!

================================================================================
                                       INPUT FILE
================================================================================
NAME = Au-alkyne_2-full_wB2PLYP_def2SVP.inp
|  1> %maxcore 6000
|  2> %pal
|  3>  nprocs 8
|  4> end
|  5> ! RI-wB2PLYP def2-SVP def2/J def2-SVP/C RIJCOSX CPCM TIGHTSCF
|  6> 
|  7> %TDDFT 
|  8>     DCORR      1
|  9>     NROOTS    40
| 10>     TDA       FALSE
| 11> END
| 12> 
| 13> %CPCM
| 14>     SMD		TRUE
| 15>     SMDsolvent	"Acetonitrile"
| 16> END
| 17> 
| 18> * xyz 0 1
| 19> Au                 -4.55610900   -0.00065700   -0.00742000
| 20> C                  -7.22581000    1.19989100    0.00366500
| 21> C                  -7.22686800   -1.19841200    0.02526000
| 22> C                  -8.62468400   -1.21246900    0.03707300
| 23> C                  -9.30875400    0.00179600    0.03062700
| 24> C                  -8.62362200    1.21536500    0.01368300
| 25> C                  -6.31258900    2.35092900   -0.01260700
| 26> C                  -4.91233800    2.08377800   -0.02103800
| 27> C                  -4.03073100    3.16317200   -0.03755100
| 28> C                  -4.50455500    4.48040500   -0.04537200
| 29> C                  -5.87658500    4.73454900   -0.03628100
| 30> C                  -6.77911900    3.67397100   -0.01984200
| 31> H                  -9.16746500   -2.15763800    0.05044200
| 32> H                 -10.40062400    0.00235800    0.03897900
| 33> H                  -9.16557800    2.16109200    0.00852800
| 34> H                  -2.95037500    2.98720800   -0.04490100
| 35> H                  -3.79628400    5.31345200   -0.05864300
| 36> H                  -6.24576900    5.76258400   -0.04220600
| 37> H                  -7.85301400    3.87861300   -0.01305900
| 38> C                  -6.31470300   -2.35038600    0.02780500
| 39> C                  -6.78246400   -3.67289900    0.04490100
| 40> C                  -4.91422200   -2.08473900    0.01291500
| 41> C                  -5.88092600   -4.73444300    0.04796700
| 42> H                  -7.85653800   -3.87638500    0.05631300
| 43> C                  -4.03362600   -3.16507900    0.01645300
| 44> C                  -4.50866400   -4.48178700    0.03387300
| 45> H                  -6.25106000   -5.76206300    0.06165200
| 46> H                  -2.95310100   -2.99029000    0.00606400
| 47> H                  -3.80115700   -5.31558400    0.03662800
| 48> N                  -6.60305800    0.00041700    0.00940600
| 49> C                  -2.57853500   -0.00180100   -0.01843800
| 50> C                  -1.34813500   -0.00248200   -0.02012500
| 51> C                   0.07667200   -0.00330700   -0.01956400
| 52> C                   0.80462800    0.81994600   -0.90326900
| 53> C                   0.80171100   -0.82692900    0.86626300
| 54> C                   2.19301300    0.81303300   -0.90817700
| 55> H                   0.26577800    1.46052700   -1.60480400
| 56> C                   2.18999800   -0.81962500    0.87629500
| 57> H                   0.26045900   -1.46745900    1.56599600
| 58> C                   2.90003800   -0.00291800   -0.01440900
| 59> H                   2.73833300    1.43568700   -1.62033400
| 60> H                   2.73277800   -1.44197600    1.59065300
| 61> C                   5.13017900   -1.12972200   -0.01493000
| 62> C                   5.12780800    1.12811300    0.00198500
| 63> C                   4.79428800   -2.48486500   -0.07171500
| 64> C                   6.48497100   -0.72070100   -0.00576700
| 65> C                   4.78862900    2.48255700    0.05565000
| 66> C                   6.48344900    0.72182400    0.00655100
| 67> C                   5.83116500   -3.41123200   -0.09215700
| 68> H                   3.75484700   -2.81707200   -0.10659600
| 69> C                   7.50720400   -1.68032400   -0.02511400
| 70> C                   5.82336700    3.41101000    0.08704100
| 71> H                   3.74821700    2.81265700    0.07988500
| 72> C                   7.50347700    1.68350800    0.03675600
| 73> C                   7.19623400   -3.04103700   -0.06189600
| 74> H                   5.56919400   -4.47217500   -0.13525100
| 75> H                   8.54544900   -1.34193300   -0.01524400
| 76> C                   7.18941600    3.04358200    0.07083200
| 77> H                   5.55884300    4.47141000    0.12773300
| 78> H                   8.54243700    1.34717700    0.03758300
| 79> N                   4.31049800   -0.00165500   -0.01068900
| 80> C                   8.25679100    4.14021400    0.09477500
| 81> C                   8.26601200   -4.13550300   -0.07468100
| 82> C                   8.11580700   -4.98114700   -1.34421600
| 83> H                   8.87453700   -5.77843600   -1.37196300
| 84> H                   7.13068800   -5.46648600   -1.40458300
| 85> H                   8.24218200   -4.37042000   -2.25119600
| 86> C                   9.67632800   -3.55430600   -0.04457300
| 87> H                  10.41917600   -4.36540600   -0.05285800
| 88> H                   9.88104100   -2.91615600   -0.91706500
| 89> H                   9.85868800   -2.95468300    0.85966600
| 90> C                   8.08535600   -5.03588800    1.15279500
| 91> H                   8.18763600   -4.46526500    2.08849800
| 92> H                   7.09971300   -5.52383800    1.16691700
| 93> H                   8.84456400   -5.83315000    1.16517000
| 94> C                   8.09064200    4.98676200    1.36171900
| 95> H                   8.84784700    5.78517900    1.39748400
| 96> H                   7.10424100    5.47080600    1.41025900
| 97> H                   8.20740200    4.37706200    2.27067500
| 98> C                   9.66852100    3.56183200    0.08113200
| 99> H                   9.86237900    2.96192500   -0.82051900
|100> H                  10.40959800    4.37443100    0.09724200
|101> H                   9.86451800    2.92471300    0.95638000
|102> C                   8.08812900    5.03904600   -1.13554000
|103> H                   8.20281700    4.46782900   -2.06943900
|104> H                   7.10140500    5.52432100   -1.16162900
|105> H                   8.84534900    5.83828400   -1.13983900
|106> *
|107> 
|108>                          ****END OF INPUT****
================================================================================

                       ****************************
                       * Single Point Calculation *
                       ****************************

---------------------------------
CARTESIAN COORDINATES (ANGSTROEM)
---------------------------------
  Au    -4.556109   -0.000657   -0.007420
  C     -7.225810    1.199891    0.003665
  C     -7.226868   -1.198412    0.025260
  C     -8.624684   -1.212469    0.037073
  C     -9.308754    0.001796    0.030627
  C     -8.623622    1.215365    0.013683
  C     -6.312589    2.350929   -0.012607
  C     -4.912338    2.083778   -0.021038
  C     -4.030731    3.163172   -0.037551
  C     -4.504555    4.480405   -0.045372
  C     -5.876585    4.734549   -0.036281
  C     -6.779119    3.673971   -0.019842
  H     -9.167465   -2.157638    0.050442
  H    -10.400624    0.002358    0.038979
  H     -9.165578    2.161092    0.008528
  H     -2.950375    2.987208   -0.044901
  H     -3.796284    5.313452   -0.058643
  H     -6.245769    5.762584   -0.042206
  H     -7.853014    3.878613   -0.013059
  C     -6.314703   -2.350386    0.027805
  C     -6.782464   -3.672899    0.044901
  C     -4.914222   -2.084739    0.012915
  C     -5.880926   -4.734443    0.047967
  H     -7.856538   -3.876385    0.056313
  C     -4.033626   -3.165079    0.016453
  C     -4.508664   -4.481787    0.033873
  H     -6.251060   -5.762063    0.061652
  H     -2.953101   -2.990290    0.006064
  H     -3.801157   -5.315584    0.036628
  N     -6.603058    0.000417    0.009406
  C     -2.578535   -0.001801   -0.018438
  C     -1.348135   -0.002482   -0.020125
  C      0.076672   -0.003307   -0.019564
  C      0.804628    0.819946   -0.903269
  C      0.801711   -0.826929    0.866263
  C      2.193013    0.813033   -0.908177
  H      0.265778    1.460527   -1.604804
  C      2.189998   -0.819625    0.876295
  H      0.260459   -1.467459    1.565996
  C      2.900038   -0.002918   -0.014409
  H      2.738333    1.435687   -1.620334
  H      2.732778   -1.441976    1.590653
  C      5.130179   -1.129722   -0.014930
  C      5.127808    1.128113    0.001985
  C      4.794288   -2.484865   -0.071715
  C      6.484971   -0.720701   -0.005767
  C      4.788629    2.482557    0.055650
  C      6.483449    0.721824    0.006551
  C      5.831165   -3.411232   -0.092157
  H      3.754847   -2.817072   -0.106596
  C      7.507204   -1.680324   -0.025114
  C      5.823367    3.411010    0.087041
  H      3.748217    2.812657    0.079885
  C      7.503477    1.683508    0.036756
  C      7.196234   -3.041037   -0.061896
  H      5.569194   -4.472175   -0.135251
  H      8.545449   -1.341933   -0.015244
  C      7.189416    3.043582    0.070832
  H      5.558843    4.471410    0.127733
  H      8.542437    1.347177    0.037583
  N      4.310498   -0.001655   -0.010689
  C      8.256791    4.140214    0.094775
  C      8.266012   -4.135503   -0.074681
  C      8.115807   -4.981147   -1.344216
  H      8.874537   -5.778436   -1.371963
  H      7.130688   -5.466486   -1.404583
  H      8.242182   -4.370420   -2.251196
  C      9.676328   -3.554306   -0.044573
  H     10.419176   -4.365406   -0.052858
  H      9.881041   -2.916156   -0.917065
  H      9.858688   -2.954683    0.859666
  C      8.085356   -5.035888    1.152795
  H      8.187636   -4.465265    2.088498
  H      7.099713   -5.523838    1.166917
  H      8.844564   -5.833150    1.165170
  C      8.090642    4.986762    1.361719
  H      8.847847    5.785179    1.397484
  H      7.104241    5.470806    1.410259
  H      8.207402    4.377062    2.270675
  C      9.668521    3.561832    0.081132
  H      9.862379    2.961925   -0.820519
  H     10.409598    4.374431    0.097242
  H      9.864518    2.924713    0.956380
  C      8.088129    5.039046   -1.135540
  H      8.202817    4.467829   -2.069439
  H      7.101405    5.524321   -1.161629
  H      8.845349    5.838284   -1.139839

----------------------------
CARTESIAN COORDINATES (A.U.)
----------------------------
  NO LB      ZA    FRAG     MASS         X           Y           Z
   0 Au   19.0000*   0   196.966   -8.609798   -0.001242   -0.014022
   1 C     6.0000    0    12.011  -13.654802    2.267465    0.006926
   2 C     6.0000    0    12.011  -13.656801   -2.264670    0.047734
   3 C     6.0000    0    12.011  -16.298291   -2.291234    0.070058
   4 C     6.0000    0    12.011  -17.590996    0.003394    0.057877
   5 C     6.0000    0    12.011  -16.296284    2.296707    0.025857
   6 C     6.0000    0    12.011  -11.929064    4.442612   -0.023824
   7 C     6.0000    0    12.011   -9.282973    3.937770   -0.039756
   8 C     6.0000    0    12.011   -7.616978    5.977529   -0.070961
   9 C     6.0000    0    12.011   -8.512375    8.466738   -0.085741
  10 C     6.0000    0    12.011  -11.105136    8.947001   -0.068561
  11 C     6.0000    0    12.011  -12.810678    6.942799   -0.037496
  12 H     1.0000    0     1.008  -17.323998   -4.077345    0.095322
  13 H     1.0000    0     1.008  -19.654331    0.004456    0.073660
  14 H     1.0000    0     1.008  -17.320432    4.083872    0.016116
  15 H     1.0000    0     1.008   -5.575401    5.645005   -0.084851
  16 H     1.0000    0     1.008   -7.173937   10.040969   -0.110819
  17 H     1.0000    0     1.008  -11.802793   10.889706   -0.079758
  18 H     1.0000    0     1.008  -14.840046    7.329516   -0.024678
  19 C     6.0000    0    12.011  -11.933059   -4.441586    0.052544
  20 C     6.0000    0    12.011  -12.816999   -6.940773    0.084851
  21 C     6.0000    0    12.011   -9.286534   -3.939586    0.024406
  22 C     6.0000    0    12.011  -11.113340   -8.946801    0.090644
  23 H     1.0000    0     1.008  -14.846705   -7.325306    0.106416
  24 C     6.0000    0    12.011   -7.622448   -5.981133    0.031092
  25 C     6.0000    0    12.011   -8.520140   -8.469350    0.064011
  26 H     1.0000    0     1.008  -11.812791  -10.888721    0.116505
  27 H     1.0000    0     1.008   -5.580552   -5.650829    0.011459
  28 H     1.0000    0     1.008   -7.183146  -10.044998    0.069217
  29 N     7.0000    0    14.007  -12.477971    0.000788    0.017775
  30 C     6.0000    0    12.011   -4.872725   -0.003403   -0.034843
  31 C     6.0000    0    12.011   -2.547606   -0.004690   -0.038031
  32 C     6.0000    0    12.011    0.144889   -0.006249   -0.036971
  33 C     6.0000    0    12.011    1.520527    1.549473   -1.706931
  34 C     6.0000    0    12.011    1.515014   -1.562669    1.637000
  35 C     6.0000    0    12.011    4.144194    1.536410   -1.716206
  36 H     1.0000    0     1.008    0.502248    2.759996   -3.032640
  37 C     6.0000    0    12.011    4.138496   -1.548867    1.655958
  38 H     1.0000    0     1.008    0.492196   -2.773096    2.959304
  39 C     6.0000    0    12.011    5.480278   -0.005514   -0.027229
  40 H     1.0000    0     1.008    5.174699    2.713055   -3.061988
  41 H     1.0000    0     1.008    5.164202   -2.724940    3.005899
  42 C     6.0000    0    12.011    9.694633   -2.134865   -0.028214
  43 C     6.0000    0    12.011    9.690153    2.131825    0.003751
  44 C     6.0000    0    12.011    9.059891   -4.695714   -0.135522
  45 C     6.0000    0    12.011   12.254819   -1.361928   -0.010898
  46 C     6.0000    0    12.011    9.049197    4.691353    0.105163
  47 C     6.0000    0    12.011   12.251943    1.364050    0.012380
  48 C     6.0000    0    12.011   11.019305   -6.446294   -0.174151
  49 H     1.0000    0     1.008    7.095633   -5.323495   -0.201437
  50 C     6.0000    0    12.011   14.186560   -3.175352   -0.047459
  51 C     6.0000    0    12.011   11.004569    6.445875    0.164484
  52 H     1.0000    0     1.008    7.083104    5.315151    0.150961
  53 C     6.0000    0    12.011   14.179517    3.181369    0.069459
  54 C     6.0000    0    12.011   13.598911   -5.746727   -0.116966
  55 H     1.0000    0     1.008   10.524251   -8.451186   -0.255587
  56 H     1.0000    0     1.008   16.148558   -2.535886   -0.028807
  57 C     6.0000    0    12.011   13.586027    5.751536    0.133853
  58 H     1.0000    0     1.008   10.504691    8.449740    0.241380
  59 H     1.0000    0     1.008   16.142866    2.545796    0.071022
  60 N     7.0000    0    14.007    8.145661   -0.003127   -0.020199
  61 C     6.0000    0    12.011   15.603074    7.823871    0.179099
  62 C     6.0000    0    12.011   15.620499   -7.814968   -0.141127
  63 C     6.0000    0    12.011   15.336653   -9.413004   -2.540200
  64 H     1.0000    0     1.008   16.770444  -10.919662   -2.592634
  65 H     1.0000    0     1.008   13.475047  -10.330161   -2.654277
  66 H     1.0000    0     1.008   15.575467   -8.258897   -4.254144
  67 C     6.0000    0    12.011   18.285610   -6.716665   -0.084231
  68 H     1.0000    0     1.008   19.689389   -8.249422   -0.099887
  69 H     1.0000    0     1.008   18.672461   -5.510736   -1.733002
  70 H     1.0000    0     1.008   18.630220   -5.583542    1.624533
  71 C     6.0000    0    12.011   15.279109   -9.516449    2.178467
  72 H     1.0000    0     1.008   15.472390   -8.438128    3.946689
  73 H     1.0000    0     1.008   13.416513  -10.438541    2.205154
  74 H     1.0000    0     1.008   16.713804  -11.023056    2.201852
  75 C     6.0000    0    12.011   15.289098    9.423614    2.573276
  76 H     1.0000    0     1.008   16.720008   10.932404    2.640862
  77 H     1.0000    0     1.008   13.425070   10.338325    2.665003
  78 H     1.0000    0     1.008   15.509742    8.271448    4.290954
  79 C     6.0000    0    12.011   18.270857    6.730887    0.153317
  80 H     1.0000    0     1.008   18.637195    5.597227   -1.550556
  81 H     1.0000    0     1.008   19.671289    8.266477    0.183761
  82 H     1.0000    0     1.008   18.641237    5.526907    1.807296
  83 C     6.0000    0    12.011   15.284349    9.522417   -2.145860
  84 H     1.0000    0     1.008   15.501078    8.442973   -3.910673
  85 H     1.0000    0     1.008   13.419711   10.439454   -2.195161
  86 H     1.0000    0     1.008   16.715287   11.032758   -2.153984
* core charge reduced due to ECP

--------------------------------
INTERNAL COORDINATES (ANGSTROEM)
--------------------------------
 Au     0   0   0     0.000000000000     0.00000000     0.00000000
 C      1   0   0     2.927241330490     0.00000000     0.00000000
 C      2   1   0     2.398400455136    65.81549074     0.00000000
 C      3   2   1     1.397936592294    90.60575953   179.99078595
 C      4   3   2     1.393711880570   118.81504212     0.05799218
 C      5   4   3     1.393715420852   121.15828711   359.95540582
 C      2   1   3     1.469396423798    75.78356888   179.93660097
 C      7   2   1     1.425532743069   117.62843979     0.00000000
 C      8   7   2     1.393770063122   118.44092369   179.95031649
 C      9   8   7     1.399883254884   120.97661375     0.00000000
 C     10   9   8     1.395398917843   120.27467623     0.00000000
 C     11  10   9     1.392718046110   119.90523517   359.97691601
 H      4   3   2     1.090015771759   120.44672676   180.01975235
 H      5   4   3     1.091902087482   119.42110330   179.95422745
 H      6   5   4     1.090019467023   120.73842611   179.98746992
 H      9   8   7     1.094617028249   119.99193768   180.03470486
 H     10   9   8     1.093522397160   119.84553280   180.01842018
 H     11  10   9     1.092331402417   120.24456594   179.98883070
 H     12  11  10     1.093240517122   119.61019363   180.01710834
 C      3   2   1     1.469386117032   141.59996480     0.00000000
 C     20   3   2     1.402901729098   122.14731056   179.94304263
 C     20   3   2     1.425530452874   117.62988896     0.00000000
 C     21  20   3     1.392715272314   120.18073002   180.06144865
 H     21  20   3     1.093239106242   120.21005789     0.03603702
 C     22  20   3     1.393770550794   118.43988333   179.93574219
 C     23  21  20     1.395398398959   119.90476991     0.00000000
 H     23  21  20     1.092332056465   119.85060596   179.97911569
 H     25  22  20     1.094620208779   119.99189037   180.04757101
 H     26  23  21     1.093522373929   119.88008612   179.97935742
 N      3   2   1     1.351510723841    27.46384452     0.00000000
 C      1   2   3     1.977605023895   155.82004628   180.36687931
 C     31   1   2     1.230401344981   179.75933532    89.84012438
 C     32  31   1     1.424807349291   179.89887180     1.17046107
 C     33  32  31     1.410177282107   121.03964441   222.14773998
 C     33  32  31     1.410221338774   120.97852212    42.08129483
 C     34  33  32     1.388410885242   121.03187151   180.39433731
 H     34  33  32     1.092178875590   119.35636694   359.41868445
 C     35  33  32     1.388342459125   121.03603968   180.59707932
 H     35  33  32     1.092180699195   119.35176602   359.56673242
 C     36  34  33     1.401599665686   120.33643054   359.01042909
 H     36  34  33     1.091897201556   119.92601230   178.18387221
 H     38  35  33     1.091896628699   119.92112405   178.13128372
 C     40  36  34     2.498642912810   135.44970541   152.04653620
 C     43  40  36     2.257899604963    63.13484256    65.86818231
 C     43  40  36     1.397304494573   102.87438107   247.77951294
 C     43  40  36     1.415218535165   136.39349534    65.94348722
 C     44  43  40     1.397297704644   165.89385832     7.54517354
 C     44  43  40     1.415222286695    73.25824707   179.88188110
 C     45  43  40     1.390570964454   117.86768609   179.75826006
 H     45  43  40     1.091794746045   121.68516721     0.19413304
 C     46  43  40     1.402216429381   120.00028386   180.72031108
 C     47  44  48     1.390572938301   117.86838708     1.22359289
 H     47  44  48     1.091792322271   121.68457248   181.65977799
 C     48  44  43     1.402214526620   119.99951455   180.81468325
 C     51  46  43     1.396279028272   120.32684963     0.40150106
 H     49  45  43     1.093657143225   117.91877842   179.92011149
 H     51  46  43     1.092043298503   118.74490311   180.13949279
 C     54  48  44     1.396279617760   120.32824864     0.39899118
 H     52  47  44     1.093653027902   117.91987636   179.92190113
 H     54  48  44     1.092042630619   118.74238607   180.12834135
 N     43  40  36     1.394428228462    27.19166409    65.75115275
 C     58  54  48     1.530511156868   122.78257296   180.44642534
 C     55  51  46     1.530504573879   122.78146575   180.43581303
 C     63  55  51     1.532773444768   109.44794265   239.61191227
 H     64  63  55     1.100959063013   110.66324596   180.21771461
 H     64  63  55     1.099844336154   112.12892251   299.90304617
 H     64  63  55     1.100713781850   111.41470323    60.58008703
 C     63  55  51     1.525676133499   111.93419880   359.92461454
 H     68  63  55     1.099897723577   110.07458716   179.90138560
 H     68  63  55     1.100175042860   112.16763565   299.19656274
 H     68  63  55     1.100205017644   112.15141857    60.61258451
 C     63  55  51     1.532979800629   109.32644667   120.13890106
 H     72  63  55     1.100732442848   111.42194839   299.58729492
 H     72  63  55     1.099903067017   112.11382316    60.24966307
 H     72  63  55     1.100988930250   110.67404169   179.94937280
 C     62  58  54     1.532773990398   109.45482046   239.51240114
 H     76  62  58     1.100957879821   110.66029709   180.18492445
 H     76  62  58     1.099837105365   112.13353078   299.86481486
 H     76  62  58     1.100712495403   111.41666959    60.54795848
 C     62  58  54     1.525678033621   111.93424810   359.82729605
 H     80  62  58     1.100201735417   112.15303084    60.62040458
 H     80  62  58     1.099896261849   110.07444790   179.90810846
 H     80  62  58     1.100179306147   112.16457118   299.20545236
 C     62  58  54     1.532977766862   109.31912102   120.03871470
 H     84  62  58     1.100731366244   111.41920012   299.54897900
 H     84  62  58     1.099907593265   112.11235094    60.20608939
 H     84  62  58     1.100991367107   110.67686333   179.91260251

---------------------------
INTERNAL COORDINATES (A.U.)
---------------------------
 Au     0   0   0     0.000000000000     0.00000000     0.00000000
 C      1   0   0     5.531684442522     0.00000000     0.00000000
 C      2   1   0     4.532320019680    65.81549074     0.00000000
 C      3   2   1     2.641717312022    90.60575953   179.99078595
 C      4   3   2     2.633733763869   118.81504212     0.05799218
 C      5   4   3     2.633740454033   121.15828711   359.95540582
 C      2   1   3     2.776756823141    75.78356888   179.93660097
 C      7   2   1     2.693866479339   117.62843979     0.00000000
 C      8   7   2     2.633843712958   118.44092369   179.95031649
 C      9   8   7     2.645395971194   120.97661375     0.00000000
 C     10   9   8     2.636921802293   120.27467623     0.00000000
 C     11  10   9     2.631855688918   119.90523517   359.97691601
 H      4   3   2     2.059831290279   120.44672676   180.01975235
 H      5   4   3     2.063395910398   119.42110330   179.95422745
 H      6   5   4     2.059838273317   120.73842611   179.98746992
 H      9   8   7     2.068526404917   119.99193768   180.03470486
 H     10   9   8     2.066457851942   119.84553280   180.01842018
 H     11  10   9     2.064207198050   120.24456594   179.98883070
 H     12  11  10     2.065925175868   119.61019363   180.01710834
 C      3   2   1     2.776737346176   141.59996480     0.00000000
 C     20   3   2     2.651100060800   122.14731056   179.94304263
 C     20   3   2     2.693862151496   117.62988896     0.00000000
 C     21  20   3     2.631850447203   120.18073002   180.06144865
 H     21  20   3     2.065922509690   120.21005789     0.03603702
 C     22  20   3     2.633844634525   118.43988333   179.93574219
 C     23  21  20     2.636920821744   119.90476991     0.00000000
 H     23  21  20     2.064208434022   119.85060596   179.97911569
 H     25  22  20     2.068532415248   119.99189037   180.04757101
 H     26  23  21     2.066457808041   119.88008612   179.97935742
 N      3   2   1     2.553985135117    27.46384452     0.00000000
 C      1   2   3     3.737131896229   155.82004628   180.36687931
 C     31   1   2     2.325121576822   179.75933532    89.84012438
 C     32  31   1     2.692495683759   179.89887180     1.17046107
 C     33  32  31     2.664848863459   121.03964441   222.14773998
 C     33  32  31     2.664932118495   120.97852212    42.08129483
 C     34  33  32     2.623716334462   121.03187151   180.39433731
 H     34  33  32     2.063918964120   119.35636694   359.41868445
 C     35  33  32     2.623587027841   121.03603968   180.59707932
 H     35  33  32     2.063922410232   119.35176602   359.56673242
 C     36  34  33     2.648639517541   120.33643054   359.01042909
 H     36  34  33     2.063386677335   119.92601230   178.18387221
 H     38  35  33     2.063385594794   119.92112405   178.13128372
 C     40  36  34     4.721750811675   135.44970541   152.04653620
 C     43  40  36     4.266811891269    63.13484256    65.86818231
 C     43  40  36     2.640522820441   102.87438107   247.77951294
 C     43  40  36     2.674375451111   136.39349534    65.94348722
 C     44  43  40     2.640509989333   165.89385832     7.54517354
 C     44  43  40     2.674382540475    73.25824707   179.88188110
 C     45  43  40     2.627798292600   117.86768609   179.75826006
 H     45  43  40     2.063193064479   121.68516721     0.19413304
 C     46  43  40     2.649805032016   120.00028386   180.72031108
 C     47  44  48     2.627802022630   117.86838708     1.22359289
 H     47  44  48     2.063188484209   121.68457248   181.65977799
 C     48  44  43     2.649801436318   119.99951455   180.81468325
 C     51  46  43     2.638584969972   120.32684963     0.40150106
 H     49  45  43     2.066712485101   117.91877842   179.92011149
 H     51  46  43     2.063662760555   118.74490311   180.13949279
 C     54  48  44     2.638586083943   120.32824864     0.39899118
 H     52  47  44     2.066704708269   117.91987636   179.92190113
 H     54  48  44     2.063661498437   118.74238607   180.12834135
 N     43  40  36     2.635087465202    27.19166409    65.75115275
 C     58  54  48     2.892246931392   122.78257296   180.44642534
 C     55  51  46     2.892234491345   122.78146575   180.43581303
 C     63  55  51     2.896522035959   109.44794265   239.61191227
 H     64  63  55     2.080511113753   110.66324596   180.21771461
 H     64  63  55     2.078404585276   112.12892251   299.90304617
 H     64  63  55     2.080047599529   111.41470323    60.58008703
 C     63  55  51     2.883110061373   111.93419880   359.92461454
 H     68  63  55     2.078505472883   110.07458716   179.90138560
 H     68  63  55     2.079029530381   112.16763565   299.19656274
 H     68  63  55     2.079086174514   112.15141857    60.61258451
 C     63  55  51     2.896911992022   109.32644667   120.13890106
 H     72  63  55     2.080082863705   111.42194839   299.58729492
 H     72  63  55     2.078515570522   112.11382316    60.24966307
 H     72  63  55     2.080567554651   110.67404169   179.94937280
 C     62  58  54     2.896523067050   109.45482046   239.51240114
 H     76  62  58     2.080508877843   110.66029709   180.18492445
 H     76  62  58     2.078390921064   112.13353078   299.86481486
 H     76  62  58     2.080045168496   111.41666959    60.54795848
 C     62  58  54     2.883113652083   111.93424810   359.82729605
 H     80  62  58     2.079079972003   112.15303084    60.62040458
 H     80  62  58     2.078502710619   110.07444790   179.90810846
 H     80  62  58     2.079037586825   112.16457118   299.20545236
 C     62  58  54     2.896908148759   109.31912102   120.03871470
 H     84  62  58     2.080080829219   111.41920012   299.54897900
 H     84  62  58     2.078524123891   112.11235094    60.20608939
 H     84  62  58     2.080572159645   110.67686333   179.91260251

---------------------
BASIS SET INFORMATION
---------------------
There are 4 groups of distinct atoms

 Group   1 Type Au  : 7s6p5d1f contracted to 6s3p2d1f pattern {211111/411/41/1}
 Group   2 Type C   : 7s4p1d contracted to 3s2p1d pattern {511/31/1}
 Group   3 Type H   : 4s1p contracted to 2s1p pattern {31/1}
 Group   4 Type N   : 7s4p1d contracted to 3s2p1d pattern {511/31/1}

Atom   0Au   basis set group =>   1
Atom   1C    basis set group =>   2
Atom   2C    basis set group =>   2
Atom   3C    basis set group =>   2
Atom   4C    basis set group =>   2
Atom   5C    basis set group =>   2
Atom   6C    basis set group =>   2
Atom   7C    basis set group =>   2
Atom   8C    basis set group =>   2
Atom   9C    basis set group =>   2
Atom  10C    basis set group =>   2
Atom  11C    basis set group =>   2
Atom  12H    basis set group =>   3
Atom  13H    basis set group =>   3
Atom  14H    basis set group =>   3
Atom  15H    basis set group =>   3
Atom  16H    basis set group =>   3
Atom  17H    basis set group =>   3
Atom  18H    basis set group =>   3
Atom  19C    basis set group =>   2
Atom  20C    basis set group =>   2
Atom  21C    basis set group =>   2
Atom  22C    basis set group =>   2
Atom  23H    basis set group =>   3
Atom  24C    basis set group =>   2
Atom  25C    basis set group =>   2
Atom  26H    basis set group =>   3
Atom  27H    basis set group =>   3
Atom  28H    basis set group =>   3
Atom  29N    basis set group =>   4
Atom  30C    basis set group =>   2
Atom  31C    basis set group =>   2
Atom  32C    basis set group =>   2
Atom  33C    basis set group =>   2
Atom  34C    basis set group =>   2
Atom  35C    basis set group =>   2
Atom  36H    basis set group =>   3
Atom  37C    basis set group =>   2
Atom  38H    basis set group =>   3
Atom  39C    basis set group =>   2
Atom  40H    basis set group =>   3
Atom  41H    basis set group =>   3
Atom  42C    basis set group =>   2
Atom  43C    basis set group =>   2
Atom  44C    basis set group =>   2
Atom  45C    basis set group =>   2
Atom  46C    basis set group =>   2
Atom  47C    basis set group =>   2
Atom  48C    basis set group =>   2
Atom  49H    basis set group =>   3
Atom  50C    basis set group =>   2
Atom  51C    basis set group =>   2
Atom  52H    basis set group =>   3
Atom  53C    basis set group =>   2
Atom  54C    basis set group =>   2
Atom  55H    basis set group =>   3
Atom  56H    basis set group =>   3
Atom  57C    basis set group =>   2
Atom  58H    basis set group =>   3
Atom  59H    basis set group =>   3
Atom  60N    basis set group =>   4
Atom  61C    basis set group =>   2
Atom  62C    basis set group =>   2
Atom  63C    basis set group =>   2
Atom  64H    basis set group =>   3
Atom  65H    basis set group =>   3
Atom  66H    basis set group =>   3
Atom  67C    basis set group =>   2
Atom  68H    basis set group =>   3
Atom  69H    basis set group =>   3
Atom  70H    basis set group =>   3
Atom  71C    basis set group =>   2
Atom  72H    basis set group =>   3
Atom  73H    basis set group =>   3
Atom  74H    basis set group =>   3
Atom  75C    basis set group =>   2
Atom  76H    basis set group =>   3
Atom  77H    basis set group =>   3
Atom  78H    basis set group =>   3
Atom  79C    basis set group =>   2
Atom  80H    basis set group =>   3
Atom  81H    basis set group =>   3
Atom  82H    basis set group =>   3
Atom  83C    basis set group =>   2
Atom  84H    basis set group =>   3
Atom  85H    basis set group =>   3
Atom  86H    basis set group =>   3
---------------------------------
AUXILIARY/J BASIS SET INFORMATION
---------------------------------
There are 4 groups of distinct atoms

 Group   1 Type Au  : 11s5p5d3f3g contracted to 8s5p5d2f3g pattern {41111111/11111/11111/21/111}
 Group   2 Type C   : 12s5p4d2f1g contracted to 6s4p3d1f1g pattern {711111/2111/211/2/1}
 Group   3 Type H   : 5s2p1d contracted to 3s1p1d pattern {311/2/1}
 Group   4 Type N   : 12s5p4d2f1g contracted to 6s4p3d1f1g pattern {711111/2111/211/2/1}

Atom   0Au   basis set group =>   1
Atom   1C    basis set group =>   2
Atom   2C    basis set group =>   2
Atom   3C    basis set group =>   2
Atom   4C    basis set group =>   2
Atom   5C    basis set group =>   2
Atom   6C    basis set group =>   2
Atom   7C    basis set group =>   2
Atom   8C    basis set group =>   2
Atom   9C    basis set group =>   2
Atom  10C    basis set group =>   2
Atom  11C    basis set group =>   2
Atom  12H    basis set group =>   3
Atom  13H    basis set group =>   3
Atom  14H    basis set group =>   3
Atom  15H    basis set group =>   3
Atom  16H    basis set group =>   3
Atom  17H    basis set group =>   3
Atom  18H    basis set group =>   3
Atom  19C    basis set group =>   2
Atom  20C    basis set group =>   2
Atom  21C    basis set group =>   2
Atom  22C    basis set group =>   2
Atom  23H    basis set group =>   3
Atom  24C    basis set group =>   2
Atom  25C    basis set group =>   2
Atom  26H    basis set group =>   3
Atom  27H    basis set group =>   3
Atom  28H    basis set group =>   3
Atom  29N    basis set group =>   4
Atom  30C    basis set group =>   2
Atom  31C    basis set group =>   2
Atom  32C    basis set group =>   2
Atom  33C    basis set group =>   2
Atom  34C    basis set group =>   2
Atom  35C    basis set group =>   2
Atom  36H    basis set group =>   3
Atom  37C    basis set group =>   2
Atom  38H    basis set group =>   3
Atom  39C    basis set group =>   2
Atom  40H    basis set group =>   3
Atom  41H    basis set group =>   3
Atom  42C    basis set group =>   2
Atom  43C    basis set group =>   2
Atom  44C    basis set group =>   2
Atom  45C    basis set group =>   2
Atom  46C    basis set group =>   2
Atom  47C    basis set group =>   2
Atom  48C    basis set group =>   2
Atom  49H    basis set group =>   3
Atom  50C    basis set group =>   2
Atom  51C    basis set group =>   2
Atom  52H    basis set group =>   3
Atom  53C    basis set group =>   2
Atom  54C    basis set group =>   2
Atom  55H    basis set group =>   3
Atom  56H    basis set group =>   3
Atom  57C    basis set group =>   2
Atom  58H    basis set group =>   3
Atom  59H    basis set group =>   3
Atom  60N    basis set group =>   4
Atom  61C    basis set group =>   2
Atom  62C    basis set group =>   2
Atom  63C    basis set group =>   2
Atom  64H    basis set group =>   3
Atom  65H    basis set group =>   3
Atom  66H    basis set group =>   3
Atom  67C    basis set group =>   2
Atom  68H    basis set group =>   3
Atom  69H    basis set group =>   3
Atom  70H    basis set group =>   3
Atom  71C    basis set group =>   2
Atom  72H    basis set group =>   3
Atom  73H    basis set group =>   3
Atom  74H    basis set group =>   3
Atom  75C    basis set group =>   2
Atom  76H    basis set group =>   3
Atom  77H    basis set group =>   3
Atom  78H    basis set group =>   3
Atom  79C    basis set group =>   2
Atom  80H    basis set group =>   3
Atom  81H    basis set group =>   3
Atom  82H    basis set group =>   3
Atom  83C    basis set group =>   2
Atom  84H    basis set group =>   3
Atom  85H    basis set group =>   3
Atom  86H    basis set group =>   3
---------------------------------
AUXILIARY/C BASIS SET INFORMATION
---------------------------------
There are 4 groups of distinct atoms

 Group   1 Type Au  : 8s8p7d5f3g1h contracted to 8s8p7d5f3g1h pattern {11111111/11111111/1111111/11111/111/1}
 Group   2 Type C   : 8s6p5d3f contracted to 6s5p4d1f pattern {311111/21111/2111/3}
 Group   3 Type H   : 4s3p2d contracted to 3s2p1d pattern {211/21/2}
 Group   4 Type N   : 8s6p5d3f contracted to 6s5p4d1f pattern {311111/21111/2111/3}

Atom   0Au   basis set group =>   1
Atom   1C    basis set group =>   2
Atom   2C    basis set group =>   2
Atom   3C    basis set group =>   2
Atom   4C    basis set group =>   2
Atom   5C    basis set group =>   2
Atom   6C    basis set group =>   2
Atom   7C    basis set group =>   2
Atom   8C    basis set group =>   2
Atom   9C    basis set group =>   2
Atom  10C    basis set group =>   2
Atom  11C    basis set group =>   2
Atom  12H    basis set group =>   3
Atom  13H    basis set group =>   3
Atom  14H    basis set group =>   3
Atom  15H    basis set group =>   3
Atom  16H    basis set group =>   3
Atom  17H    basis set group =>   3
Atom  18H    basis set group =>   3
Atom  19C    basis set group =>   2
Atom  20C    basis set group =>   2
Atom  21C    basis set group =>   2
Atom  22C    basis set group =>   2
Atom  23H    basis set group =>   3
Atom  24C    basis set group =>   2
Atom  25C    basis set group =>   2
Atom  26H    basis set group =>   3
Atom  27H    basis set group =>   3
Atom  28H    basis set group =>   3
Atom  29N    basis set group =>   4
Atom  30C    basis set group =>   2
Atom  31C    basis set group =>   2
Atom  32C    basis set group =>   2
Atom  33C    basis set group =>   2
Atom  34C    basis set group =>   2
Atom  35C    basis set group =>   2
Atom  36H    basis set group =>   3
Atom  37C    basis set group =>   2
Atom  38H    basis set group =>   3
Atom  39C    basis set group =>   2
Atom  40H    basis set group =>   3
Atom  41H    basis set group =>   3
Atom  42C    basis set group =>   2
Atom  43C    basis set group =>   2
Atom  44C    basis set group =>   2
Atom  45C    basis set group =>   2
Atom  46C    basis set group =>   2
Atom  47C    basis set group =>   2
Atom  48C    basis set group =>   2
Atom  49H    basis set group =>   3
Atom  50C    basis set group =>   2
Atom  51C    basis set group =>   2
Atom  52H    basis set group =>   3
Atom  53C    basis set group =>   2
Atom  54C    basis set group =>   2
Atom  55H    basis set group =>   3
Atom  56H    basis set group =>   3
Atom  57C    basis set group =>   2
Atom  58H    basis set group =>   3
Atom  59H    basis set group =>   3
Atom  60N    basis set group =>   4
Atom  61C    basis set group =>   2
Atom  62C    basis set group =>   2
Atom  63C    basis set group =>   2
Atom  64H    basis set group =>   3
Atom  65H    basis set group =>   3
Atom  66H    basis set group =>   3
Atom  67C    basis set group =>   2
Atom  68H    basis set group =>   3
Atom  69H    basis set group =>   3
Atom  70H    basis set group =>   3
Atom  71C    basis set group =>   2
Atom  72H    basis set group =>   3
Atom  73H    basis set group =>   3
Atom  74H    basis set group =>   3
Atom  75C    basis set group =>   2
Atom  76H    basis set group =>   3
Atom  77H    basis set group =>   3
Atom  78H    basis set group =>   3
Atom  79C    basis set group =>   2
Atom  80H    basis set group =>   3
Atom  81H    basis set group =>   3
Atom  82H    basis set group =>   3
Atom  83C    basis set group =>   2
Atom  84H    basis set group =>   3
Atom  85H    basis set group =>   3
Atom  86H    basis set group =>   3
-------------------------
ECP PARAMETER INFORMATION
-------------------------

 Group 1, Type Au ECP Def2-ECP (replacing 60 core electrons, lmax=3)

Atom   0Au   ECP group =>   1



           ************************************************************
           *        Program running with 8 parallel MPI-processes     *
           *              working on a common directory               *
           ************************************************************
------------------------------------------------------------------------------
                           ORCA GTO INTEGRAL CALCULATION
                           -- RI-GTO INTEGRALS CHOSEN --
------------------------------------------------------------------------------
------------------------------------------------------------------------------
                   ___                                                        
                  /   \      - P O W E R E D   B Y -                         
                 /     \                                                     
                 |  |  |   _    _      __       _____    __    __             
                 |  |  |  | |  | |    /  \     |  _  \  |  |  /  |          
                  \  \/   | |  | |   /    \    | | | |  |  | /  /          
                 / \  \   | |__| |  /  /\  \   | |_| |  |  |/  /          
                |  |  |   |  __  | /  /__\  \  |    /   |      \           
                |  |  |   | |  | | |   __   |  |    \   |  |\   \          
                \     /   | |  | | |  |  |  |  | |\  \  |  | \   \       
                 \___/    |_|  |_| |__|  |__|  |_| \__\ |__|  \__/        
                                                                              
                      - O R C A' S   B I G   F R I E N D -                    
                                      &                                       
                       - I N T E G R A L  F E E D E R -                       
                                                                              
 v1 FN, 2020, v2 2021                                                         
------------------------------------------------------------------------------


Reading SHARK input file Au-alkyne_2-full_wB2PLYP_def2SVP.SHARKINP.tmp ... ok
----------------------
SHARK INTEGRAL PACKAGE
----------------------

Number of atoms                             ...     87
Number of basis functions                   ...    885
Number of shells                            ...    411
Maximum angular momentum                    ...      3
Integral batch strategy                     ... SHARK/LIBINT Hybrid
RI-J (if used) integral strategy            ... SPLIT-RIJ (Revised 2003 algorithm where possible)
Printlevel                                  ...      1
Contraction scheme used                     ... SEGMENTED contraction
Coulomb Range Separation                    ... NOT USED
Exchange Range Separation                   ... Long Range
   Mu parameter                             ...  0.300000
   Scaling (regular/separated)              ...  0.530000  0.470000
Finite Nucleus Model                        ... NOT USED
Auxiliary Coulomb fitting basis             ... AVAILABLE
   # of basis functions in Aux-J            ...   2821
   # of shells in Aux-J                     ...    923
   Maximum angular momentum in Aux-J        ...      4
Auxiliary J/K fitting basis                 ... NOT available
Auxiliary Correlation fitting basis         ... AVAILABLE
   # of basis functions in Aux-C            ...   2942
   # of shells in Aux-C                     ...   1018
   Maximum angular momentum in Aux-C        ...      5
Auxiliary 'external' fitting basis          ... NOT available
Integral threshold                          ...     2.500000e-11
Primitive cut-off                           ...     2.500000e-12
Primitive pair pre-selection threshold      ...     2.500000e-12

Calculating pre-screening integrals         ... done (  0.1 sec) Dimension = 411
Organizing shell pair data                  ... done (  0.1 sec)
Shell pair information
Total number of shell pairs                 ...     84666
Shell pairs after pre-screening             ...     33803
Total number of primitive shell pairs       ...    303772
Primitive shell pairs kept                  ...     74319
          la=0 lb=0:  10434 shell pairs
          la=1 lb=0:  12583 shell pairs
          la=1 lb=1:   3897 shell pairs
          la=2 lb=0:   3946 shell pairs
          la=2 lb=1:   2403 shell pairs
          la=2 lb=2:    373 shell pairs
          la=3 lb=0:     91 shell pairs
          la=3 lb=1:     52 shell pairs
          la=3 lb=2:     23 shell pairs
          la=3 lb=3:      1 shell pairs

Calculating one electron integrals          ... done (  0.1 sec)
Calculating ECP integrals                   ... done (  0.6 sec)
Calculating RI/J V-Matrix + Cholesky decomp.... done (  0.5 sec)
Calculating RI/C V-Matrix + Cholesky decomp.... done (  0.4 sec)
Calculating Nuclear repulsion               ... done (  0.0 sec) ENN=   5371.622718108058 Eh

SHARK setup successfully completed in   2.1 seconds

Maximum memory used throughout the entire GTOINT-calculation: 74.9 MB


           ************************************************************
           *        Program running with 8 parallel MPI-processes     *
           *              working on a common directory               *
           ************************************************************
-------------------------------------------------------------------------------
                                 ORCA SCF
-------------------------------------------------------------------------------

------------
SCF SETTINGS
------------
Hamiltonian:
 Density Functional     Method          .... DFT(GTOs)
 Exchange Functional    Exchange        .... WB88
 Correlation Functional Correlation     .... LYP
 LDA part of GGA corr.  LDAOpt          .... VWN-3
 Gradients option       PostSCFGGA      .... off
 Hybrid DFT is turned on
   Fraction HF Exchange ScalHFX         ....  0.530000
   Scaling of DF-GGA-X  ScalDFX         ....  0.000000
   Scaling of DF-GGA-C  ScalDFC         ....  0.730000
   Scaling of DF-LDA-C  ScalLDAC        ....  0.730000
   Perturbative correction              ....  0.270000
   Density functional embedding theory  .... OFF
 Long-range corrected/Screened/Range-Separated Hybrid DFT is turned on
   Amount of maximum screened exact exchange              ....  0.470000
   Range separation parameter mu (erf(mu*r12)/r12)        ....  0.300000
 RI-approximation to the Coulomb term is turned on
   Number of AuxJ basis functions       .... 2821
   RIJ-COSX (HFX calculated with COS-X)).... on


General Settings:
 Integral files         IntName         .... Au-alkyne_2-full_wB2PLYP_def2SVP
 Hartree-Fock type      HFTyp           .... RHF
 Total Charge           Charge          ....    0
 Multiplicity           Mult            ....    1
 Number of Electrons    NEL             ....  342
 Basis Dimension        Dim             ....  885
 Nuclear Repulsion      ENuc            ....   5371.6227181081 Eh

Convergence Acceleration:
 DIIS                   CNVDIIS         .... on
   Start iteration      DIISMaxIt       ....    12
   Startup error        DIISStart       ....  0.200000
   # of expansion vecs  DIISMaxEq       ....     5
   Bias factor          DIISBfac        ....   1.050
   Max. coefficient     DIISMaxC        ....  10.000
 Trust-Rad. Augm. Hess. CNVTRAH         .... auto
   Auto Start mean grad. ratio tolernc. ....  1.125000
   Auto Start start iteration           ....    20
   Auto Start num. interpolation iter.  ....    10
   Max. Number of Micro iterations      ....    16
   Max. Number of Macro iterations      .... Maxiter - #DIIS iter
   Number of Davidson start vectors     ....     2
   Converg. threshold I  (grad. norm)   ....   1.000e-05
   Converg. threshold II (energy diff.) ....   1.000e-08
   Grad. Scal. Fac. for Micro threshold ....   0.100
   Minimum threshold for Micro iter.    ....   0.010
   NR start threshold (gradient norm)   ....   0.001
   Initial trust radius                 ....   0.400
   Minimum AH scaling param. (alpha)    ....   1.000
   Maximum AH scaling param. (alpha)    .... 1000.000
   Orbital update algorithm             .... Taylor
   White noise on init. David. guess    .... on
   Maximum white noise                  ....   0.010
   Quad. conv. algorithm                .... NR
 SOSCF                  CNVSOSCF        .... off
 Level Shifting         CNVShift        .... on
   Level shift para.    LevelShift      ....    0.2500
   Turn off err/grad.   ShiftErr        ....    0.0010
 Zerner damping         CNVZerner       .... off
 Static damping         CNVDamp         .... on
   Fraction old density DampFac         ....    0.7000
   Max. Damping (<1)    DampMax         ....    0.9800
   Min. Damping (>=0)   DampMin         ....    0.0000
   Turn off err/grad.   DampErr         ....    0.1000
 Fernandez-Rico         CNVRico         .... off

SCF Procedure:
 Maximum # iterations   MaxIter         ....   125
 SCF integral mode      SCFMode         .... Direct
   Integral package                     .... SHARK and LIBINT hybrid scheme
 Reset frequency        DirectResetFreq ....    20
 Integral Threshold     Thresh          ....  2.500e-11 Eh
 Primitive CutOff       TCut            ....  2.500e-12 Eh

Convergence Tolerance:
 Convergence Check Mode ConvCheckMode   .... Total+1el-Energy
 Convergence forced     ConvForced      .... 1
 Energy Change          TolE            ....  1.000e-08 Eh
 1-El. energy change                    ....  1.000e-05 Eh
 DIIS Error             TolErr          ....  5.000e-07


Diagonalization of the overlap matrix:
Smallest eigenvalue                        ... 2.083e-04
Time for diagonalization                   ...    0.280 sec
Threshold for overlap eigenvalues          ... 1.000e-08
Number of eigenvalues below threshold      ... 0
Time for construction of square roots      ...    0.076 sec
Total time needed                          ...    0.363 sec

Time for model grid setup =    1.017 sec

------------------------------
INITIAL GUESS: MODEL POTENTIAL
------------------------------
Loading Hartree-Fock densities                     ... done
  calling /project/ligandum/orca_504_openmpi411/orca Au-alkyne_2-full_wB2PLYP_def2SVP_atom79.inp > Au-alkyne_2-full_wB2PLYP_def2SVP_atom79.out in order to generate an atomic fitting density for atom 0 (Au with ECP) on-the-fly... 
    atom 0 (Au), assumed electronic state with S=2: 1s2 2s2 2p6 3s2 3p6 4s2 3d10 4p6 5s2 4d10 5p6 6s1 4f14 5d10           ... done
Calculating cut-offs                               ... done
Initializing the effective Hamiltonian             ... done
Setting up the integral package (SHARK)            ... done
Starting the Coulomb interaction                   ... done (   0.7 sec)
Reading the grid                                   ... done
Mapping shells                                     ... done
Starting the XC term evaluation                    ... done (   0.3 sec)
  promolecular density results
     # of electrons  =    401.990707998
     EX              =   -620.597022057
     EC              =     -5.229372114
     EX+EC           =   -625.826394170
Transforming the Hamiltonian                       ... done (   0.1 sec)
Diagonalizing the Hamiltonian                      ... done (   0.1 sec)
Back transforming the eigenvectors                 ... done (   0.0 sec)
Now organizing SCF variables                       ... done
                      ------------------
                      INITIAL GUESS DONE (   7.0 sec)
                      ------------------
-------------------
DFT GRID GENERATION
-------------------

General Integration Accuracy     IntAcc      ... 4.388
Radial Grid Type                 RadialGrid  ... OptM3 with GC (2021)
Angular Grid (max. ang.)         AngularGrid ... 4 (Lebedev-302)
Angular grid pruning method      GridPruning ... 4 (adaptive)
Weight generation scheme         WeightScheme... Becke
Basis function cutoff            BFCut       ... 1.0000e-11
Integration weight cutoff        WCut        ... 1.0000e-14
Angular grids for H and He will be reduced by one unit
Partially contracted basis set               ... off
Rotationally invariant grid construction     ... off

Total number of grid points                  ...   413665
Total number of batches                      ...     6506
Average number of points per batch           ...       63
Average number of grid points per atom       ...     4755
Time for grid setup =    3.733 sec

--------------------
COSX GRID GENERATION
--------------------

GRIDX 1
-------
General Integration Accuracy     IntAcc      ... 3.816
Radial Grid Type                 RadialGrid  ... OptM3 with GC (2021)
Angular Grid (max. ang.)         AngularGrid ... 1 (Lebedev-50)
Angular grid pruning method      GridPruning ... 4 (adaptive)
Weight generation scheme         WeightScheme... Becke
Basis function cutoff            BFCut       ... 1.0000e-11
Integration weight cutoff        WCut        ... 1.0000e-14
Angular grids for H and He will be reduced by one unit
Partially contracted basis set               ... on
Rotationally invariant grid construction     ... off

Total number of grid points                  ...    52245
Total number of batches                      ...      858
Average number of points per batch           ...       60
Average number of grid points per atom       ...      601
UseSFitting                                  ... on

GRIDX 2
-------
General Integration Accuracy     IntAcc      ... 4.020
Radial Grid Type                 RadialGrid  ... OptM3 with GC (2021)
Angular Grid (max. ang.)         AngularGrid ... 2 (Lebedev-110)
Angular grid pruning method      GridPruning ... 4 (adaptive)
Weight generation scheme         WeightScheme... Becke
Basis function cutoff            BFCut       ... 1.0000e-11
Integration weight cutoff        WCut        ... 1.0000e-14
Angular grids for H and He will be reduced by one unit
Partially contracted basis set               ... on
Rotationally invariant grid construction     ... off

Total number of grid points                  ...   113118
Total number of batches                      ...     1811
Average number of points per batch           ...       62
Average number of grid points per atom       ...     1300
UseSFitting                                  ... on

GRIDX 3
-------
General Integration Accuracy     IntAcc      ... 4.338
Radial Grid Type                 RadialGrid  ... OptM3 with GC (2021)
Angular Grid (max. ang.)         AngularGrid ... 3 (Lebedev-194)
Angular grid pruning method      GridPruning ... 4 (adaptive)
Weight generation scheme         WeightScheme... Becke
Basis function cutoff            BFCut       ... 1.0000e-11
Integration weight cutoff        WCut        ... 1.0000e-14
Angular grids for H and He will be reduced by one unit
Partially contracted basis set               ... on
Rotationally invariant grid construction     ... off

Total number of grid points                  ...   245289
Total number of batches                      ...     3876
Average number of points per batch           ...       63
Average number of grid points per atom       ...     2819
UseSFitting                                  ... on

Time for X-Grid setup             =    3.748 sec


--------------------
CPCM SOLVATION MODEL
--------------------
CPCM parameters:
  Epsilon                                         ...      35.6880
  Refrac                                          ...       1.3442
  Rsolv                                           ...       1.3000
  Surface type                                    ... GAUSSIAN VDW
  Epsilon function type                           ...         CPCM
Solvent:                                     ... ACETONITRILE
SMD-CDS solvent descriptors:
  Soln                                       ...    1.3442
  Soln25                                     ...    1.3416
  Sola                                       ...    0.0700
  Solb                                       ...    0.3200
  Solg                                       ...   41.2500
  Solc                                       ...    0.0000
  Solh                                       ...    0.0000
Radii:
 Radius for Au used is    4.1007 Bohr (=   2.1700 Ang.)
 Radius for C  used is    3.4960 Bohr (=   1.8500 Ang.)
 Radius for H  used is    2.2677 Bohr (=   1.2000 Ang.)
 Radius for N  used is    3.5716 Bohr (=   1.8900 Ang.)
Calculating surface                               ...        done! (  0.0s)
GEPOL surface points                              ...         4963
GEPOL Volume                                      ...    4500.8468
GEPOL Surface-area                                ...    2418.3788
Calculating surface distance matrix               ...        done! (  0.1s)
Performing Cholesky decomposition & store         ...        done! (  0.8s)
Overall time for CPCM initialization              ...                 0.9s
--------------
SCF ITERATIONS
--------------
ITER       Energy         Delta-E        Max-DP      RMS-DP      [F,P]     Damp
               ***  Starting incremental Fock matrix formation  ***
  0  -1974.3438835897   0.000000000000 0.17300711  0.00155160  0.4667680 0.7000
  1  -1974.8805479761  -0.536664386411 0.11644413  0.00116798  0.3433448 0.7000
  2  -1975.1803952455  -0.299847269428 0.11705188  0.00079270  0.2501087 0.7000
                               ***Turning on DIIS***
  3  -1975.3639844825  -0.183589236998 0.09986822  0.00054753  0.1796510 0.7000
  4  -1975.4877846153  -0.123800132728 0.08370040  0.00039527  0.1275136 0.7000
  5  -1975.5741844257  -0.086399810403 0.19538218  0.00095340  0.0889275 0.0000
  6  -1975.7775431901  -0.203358764453 0.01435808  0.00006391  0.0059209 0.0000
  7  -1975.7780321268  -0.000488936702 0.01058306  0.00003477  0.0038224 0.0000
  8  -1975.7781660082  -0.000133881403 0.00240911  0.00001580  0.0017951 0.0000
  9  -1975.7782089544  -0.000042946192 0.00233224  0.00001064  0.0007035 0.0000
               *** Restarting incremental Fock matrix formation ***
                                   *** Resetting DIIS ***
 10  -1975.7799957560  -0.001786801534 0.00190850  0.00002854  0.0001740 0.0000
 11  -1975.7800000848  -0.000004328832 0.00032837  0.00000421  0.0001370 0.0000
 12  -1975.7800005485  -0.000000463665 0.00016381  0.00000214  0.0000930 0.0000
 13  -1975.7800007600  -0.000000211514 0.00007214  0.00000053  0.0000327 0.0000
 14  -1975.7800007963  -0.000000036278 0.00002872  0.00000028  0.0000230 0.0000
 15  -1975.7800008324  -0.000000036158 0.00001831  0.00000016  0.0000114 0.0000
 16  -1975.7800008336  -0.000000001189 0.00000524  0.00000006  0.0000060 0.0000
 17  -1975.7800008019   0.000000031712 0.00000298  0.00000004  0.0000025 0.0000
                 **** Energy Check signals convergence ****

               *****************************************************
               *                     SUCCESS                       *
               *           SCF CONVERGED AFTER  18 CYCLES          *
               *****************************************************

Old exchange energy                            =   -169.077233516 Eh
New exchange energy                            =   -169.077242247 Eh
Exchange energy change after final integration =     -0.000008731 Eh
Total energy after final integration           =  -1975.780009531 Eh
Final COS-X integration done in                =    59.201 sec

SMD CDS free energy correction energy :                -9.52261     Kcal/mol
Total Energy after SMD CDS correction =             -1975.795184771 Eh

----------------
TOTAL SCF ENERGY
----------------

Total Energy       :        -1975.79518477 Eh          -53764.12029 eV

Components:
Nuclear Repulsion  :         5371.62271811 Eh          146169.28526 eV
Electronic Energy  :        -7347.41790288 Eh         -199933.40556 eV
One Electron Energy:       -13424.69490920 Eh         -365304.52020 eV
Two Electron Energy:         6077.27700632 Eh          165371.11465 eV
Max COSX asymmetry :            0.00003651 Eh               0.00099 eV
CPCM Dielectric    :           -0.04704720 Eh              -1.28022 eV
SMD CDS (Gcds)     :           -0.01517524 Eh              -0.41294 eV

Virial components:
Potential Energy   :        -3844.67250277 Eh         -104618.85752 eV
Kinetic Energy     :         1868.87731800 Eh           50854.73723 eV
Virial Ratio       :            2.05720968


DFT components:
N(Alpha)           :      170.999780994662 electrons
N(Beta)            :      170.999780994662 electrons
N(Total)           :      341.999561989324 electrons
E(X)               :     -100.951963118259 Eh       
E(C)               :       -8.460667914747 Eh       
E(XC)              :     -109.412631033006 Eh       
DFET-embed. en.    :        0.000000000000 Eh       
CPCM Solvation Model Properties:
Surface-charge          :           -0.09342164
Charge-correction       :           -0.00028818 Eh              -0.00784 eV
Free-energy (cav+disp)  :           -0.01517524 Eh              -0.41294 eV

---------------
SCF CONVERGENCE
---------------

  Last Energy change         ...    1.9579e-09  Tolerance :   1.0000e-08
  Last MAX-Density change    ...    0.0000e+00  Tolerance :   1.0000e-07
  Last RMS-Density change    ...    0.0000e+00  Tolerance :   5.0000e-09
  Last DIIS Error            ...    5.9545e-07  Tolerance :   5.0000e-07

             **** THE GBW FILE WAS UPDATED (Au-alkyne_2-full_wB2PLYP_def2SVP.gbw) ****
             **** DENSITY Au-alkyne_2-full_wB2PLYP_def2SVP.scfp WAS UPDATED ****
             **** ENERGY FILE WAS UPDATED (Au-alkyne_2-full_wB2PLYP_def2SVP.en.tmp) ****
             **** THE GBW FILE WAS UPDATED (Au-alkyne_2-full_wB2PLYP_def2SVP.gbw) ****
             **** DENSITY Au-alkyne_2-full_wB2PLYP_def2SVP.scfp WAS UPDATED ****
----------------
ORBITAL ENERGIES
----------------

  NO   OCC          E(Eh)            E(eV) 
   0   2.0000     -14.985872      -407.7863 
   1   2.0000     -14.964662      -407.2091 
   2   2.0000     -10.777448      -293.2693 
   3   2.0000     -10.777432      -293.2688 
   4   2.0000     -10.753033      -292.6049 
   5   2.0000     -10.737730      -292.1885 
   6   2.0000     -10.737700      -292.1877 
   7   2.0000     -10.736348      -292.1509 
   8   2.0000     -10.727932      -291.9219 
   9   2.0000     -10.718548      -291.6665 
  10   2.0000     -10.718545      -291.6664 
  11   2.0000     -10.715318      -291.5786 
  12   2.0000     -10.715299      -291.5781 
  13   2.0000     -10.710897      -291.4583 
  14   2.0000     -10.710881      -291.4579 
  15   2.0000     -10.708081      -291.3817 
  16   2.0000     -10.708078      -291.3816 
  17   2.0000     -10.707048      -291.3536 
  18   2.0000     -10.707035      -291.3532 
  19   2.0000     -10.706165      -291.3296 
  20   2.0000     -10.706115      -291.3282 
  21   2.0000     -10.703811      -291.2655 
  22   2.0000     -10.703810      -291.2655 
  23   2.0000     -10.700114      -291.1649 
  24   2.0000     -10.700113      -291.1649 
  25   2.0000     -10.698905      -291.1320 
  26   2.0000     -10.698876      -291.1312 
  27   2.0000     -10.698638      -291.1247 
  28   2.0000     -10.698635      -291.1247 
  29   2.0000     -10.698526      -291.1217 
  30   2.0000     -10.698237      -291.1138 
  31   2.0000     -10.697949      -291.1060 
  32   2.0000     -10.697940      -291.1058 
  33   2.0000     -10.697907      -291.1048 
  34   2.0000     -10.696910      -291.0777 
  35   2.0000     -10.696894      -291.0773 
  36   2.0000     -10.696046      -291.0542 
  37   2.0000     -10.696041      -291.0541 
  38   2.0000     -10.695376      -291.0360 
  39   2.0000     -10.695373      -291.0359 
  40   2.0000     -10.691660      -290.9349 
  41   2.0000     -10.673920      -290.4521 
  42   2.0000     -10.673915      -290.4520 
  43   2.0000     -10.673864      -290.4506 
  44   2.0000     -10.673859      -290.4505 
  45   2.0000     -10.672661      -290.4179 
  46   2.0000     -10.672657      -290.4178 
  47   2.0000      -4.573788      -124.4591 
  48   2.0000      -2.691784       -73.2472 
  49   2.0000      -2.682985       -73.0077 
  50   2.0000      -2.664413       -72.5024 
  51   2.0000      -1.205468       -32.8025 
  52   2.0000      -1.203413       -32.7465 
  53   2.0000      -1.078287       -29.3417 
  54   2.0000      -1.068258       -29.0688 
  55   2.0000      -1.055757       -28.7286 
  56   2.0000      -1.054737       -28.7009 
  57   2.0000      -1.051924       -28.6243 
  58   2.0000      -1.016525       -27.6610 
  59   2.0000      -1.013091       -27.5676 
  60   2.0000      -1.005931       -27.3728 
  61   2.0000      -1.003973       -27.3195 
  62   2.0000      -0.974828       -26.5264 
  63   2.0000      -0.956587       -26.0301 
  64   2.0000      -0.944085       -25.6899 
  65   2.0000      -0.942776       -25.6542 
  66   2.0000      -0.927339       -25.2342 
  67   2.0000      -0.927293       -25.2329 
  68   2.0000      -0.924095       -25.1459 
  69   2.0000      -0.915669       -24.9166 
  70   2.0000      -0.910766       -24.7832 
  71   2.0000      -0.897372       -24.4187 
  72   2.0000      -0.883663       -24.0457 
  73   2.0000      -0.854421       -23.2500 
  74   2.0000      -0.849330       -23.1114 
  75   2.0000      -0.849328       -23.1114 
  76   2.0000      -0.848738       -23.0953 
  77   2.0000      -0.839614       -22.8471 
  78   2.0000      -0.825651       -22.4671 
  79   2.0000      -0.819034       -22.2870 
  80   2.0000      -0.791798       -21.5459 
  81   2.0000      -0.785393       -21.3716 
  82   2.0000      -0.780418       -21.2363 
  83   2.0000      -0.770248       -20.9595 
  84   2.0000      -0.760037       -20.6817 
  85   2.0000      -0.751875       -20.4595 
  86   2.0000      -0.747088       -20.3293 
  87   2.0000      -0.742170       -20.1955 
  88   2.0000      -0.732405       -19.9297 
  89   2.0000      -0.709337       -19.3020 
  90   2.0000      -0.706431       -19.2230 
  91   2.0000      -0.693455       -18.8699 
  92   2.0000      -0.687762       -18.7149 
  93   2.0000      -0.681304       -18.5392 
  94   2.0000      -0.665217       -18.1015 
  95   2.0000      -0.662483       -18.0271 
  96   2.0000      -0.657257       -17.8849 
  97   2.0000      -0.654065       -17.7980 
  98   2.0000      -0.630722       -17.1628 
  99   2.0000      -0.627607       -17.0780 
 100   2.0000      -0.624067       -16.9817 
 101   2.0000      -0.620695       -16.8900 
 102   2.0000      -0.616411       -16.7734 
 103   2.0000      -0.604954       -16.4616 
 104   2.0000      -0.604294       -16.4437 
 105   2.0000      -0.597830       -16.2678 
 106   2.0000      -0.592657       -16.1270 
 107   2.0000      -0.588920       -16.0253 
 108   2.0000      -0.587322       -15.9819 
 109   2.0000      -0.585603       -15.9351 
 110   2.0000      -0.577965       -15.7272 
 111   2.0000      -0.573607       -15.6086 
 112   2.0000      -0.571128       -15.5412 
 113   2.0000      -0.570771       -15.5315 
 114   2.0000      -0.570701       -15.5296 
 115   2.0000      -0.569416       -15.4946 
 116   2.0000      -0.567326       -15.4377 
 117   2.0000      -0.560435       -15.2502 
 118   2.0000      -0.560009       -15.2386 
 119   2.0000      -0.558309       -15.1924 
 120   2.0000      -0.552673       -15.0390 
 121   2.0000      -0.546997       -14.8845 
 122   2.0000      -0.545611       -14.8468 
 123   2.0000      -0.544924       -14.8281 
 124   2.0000      -0.543578       -14.7915 
 125   2.0000      -0.536898       -14.6097 
 126   2.0000      -0.531276       -14.4568 
 127   2.0000      -0.526402       -14.3241 
 128   2.0000      -0.522596       -14.2206 
 129   2.0000      -0.520257       -14.1569 
 130   2.0000      -0.516575       -14.0567 
 131   2.0000      -0.514406       -13.9977 
 132   2.0000      -0.511393       -13.9157 
 133   2.0000      -0.506790       -13.7904 
 134   2.0000      -0.499638       -13.5958 
 135   2.0000      -0.495596       -13.4859 
 136   2.0000      -0.495504       -13.4833 
 137   2.0000      -0.495015       -13.4701 
 138   2.0000      -0.494954       -13.4684 
 139   2.0000      -0.484801       -13.1921 
 140   2.0000      -0.481182       -13.0936 
 141   2.0000      -0.481048       -13.0900 
 142   2.0000      -0.479876       -13.0581 
 143   2.0000      -0.478887       -13.0312 
 144   2.0000      -0.475940       -12.9510 
 145   2.0000      -0.471459       -12.8291 
 146   2.0000      -0.470935       -12.8148 
 147   2.0000      -0.458555       -12.4779 
 148   2.0000      -0.458038       -12.4639 
 149   2.0000      -0.452176       -12.3043 
 150   2.0000      -0.444155       -12.0861 
 151   2.0000      -0.443138       -12.0584 
 152   2.0000      -0.442214       -12.0333 
 153   2.0000      -0.438305       -11.9269 
 154   2.0000      -0.434076       -11.8118 
 155   2.0000      -0.429994       -11.7007 
 156   2.0000      -0.421150       -11.4601 
 157   2.0000      -0.418559       -11.3896 
 158   2.0000      -0.410746       -11.1770 
 159   2.0000      -0.386822       -10.5260 
 160   2.0000      -0.381036       -10.3685 
 161   2.0000      -0.360669        -9.8143 
 162   2.0000      -0.356049        -9.6886 
[...]
   162a -> 176a  :     0.038570 
   165a -> 176a  :     0.033585 
   166a -> 172a  :     0.015754 
   167a -> 176a  :     0.012566 
   168a -> 179a  :     0.016260 
   169a -> 178a  :     0.018103 
   169a -> 184a  :     0.034249 
   170a -> 171a  :     0.052783 
   170a -> 173a  :     0.011584 
   170a -> 174a  :     0.027470 

STATE 36:  E=   0.238712 au      6.496 eV    52391.2 cm**-1 <S**2> =   0.000000
   156a -> 171a  :     0.010586 
   157a -> 172a  :     0.022847 
   157a -> 179a  :     0.010677 
   160a -> 171a  :     0.090594 
   160a -> 176a  :     0.069016 
   160a -> 191a  :     0.015886 
   162a -> 176a  :     0.034638 
   163a -> 173a  :     0.010792 
   163a -> 176a  :     0.103133 
   163a -> 180a  :     0.018200 
   165a -> 171a  :     0.037732 
   165a -> 176a  :     0.010749 
   165a -> 182a  :     0.010716 
   166a -> 172a  :     0.058565 
   166a -> 179a  :     0.041085 
   167a -> 173a  :     0.019548 
   168a -> 172a  :     0.020749 
   168a -> 179a  :     0.144389 
   168a -> 185a  :     0.019515 

STATE 37:  E=   0.233757 au      6.361 eV    51303.7 cm**-1 <S**2> =   0.000000
   149a -> 171a  :     0.025526 
   149a -> 176a  :     0.025595 
   160a -> 179a  :     0.042350 
   162a -> 179a  :     0.047541 
   163a -> 175a  :     0.044661 
   163a -> 179a  :     0.030181 
   165a -> 179a  :     0.259954 
   167a -> 172a  :     0.052953 
   167a -> 179a  :     0.142820 
   170a -> 172a  :     0.198473 
   170a -> 179a  :     0.013821 

STATE 38:  E=   0.227490 au      6.190 eV    49928.3 cm**-1 <S**2> =   0.000000
   149a -> 176a  :     0.014682 
   158a -> 172a  :     0.023764 
   160a -> 179a  :     0.014474 
   162a -> 172a  :     0.016233 
   162a -> 179a  :     0.016601 
   163a -> 179a  :     0.022191 
   165a -> 172a  :     0.131024 
   165a -> 179a  :     0.064925 
   167a -> 172a  :     0.037017 
   167a -> 179a  :     0.062058 
   170a -> 172a  :     0.480500 

STATE 39:  E=   0.241508 au      6.572 eV    53004.9 cm**-1 <S**2> =   0.000000
   143a -> 171a  :     0.026462 
   145a -> 172a  :     0.011994 
   148a -> 171a  :     0.725044 
   148a -> 173a  :     0.024568 
   148a -> 176a  :     0.015336 
   148a -> 180a  :     0.030019 
   162a -> 175a  :     0.021644 

STATE 40:  E=   0.245321 au      6.676 eV    53841.7 cm**-1 <S**2> =   0.000000
   156a -> 171a  :     0.061717 
   158a -> 171a  :     0.047170 
   160a -> 171a  :     0.084289 
   160a -> 173a  :     0.010948 
   160a -> 176a  :     0.043071 
   161a -> 177a  :     0.090438 
   162a -> 171a  :     0.018922 
   162a -> 176a  :     0.014364 
   163a -> 176a  :     0.056942 
   165a -> 171a  :     0.014200 
   165a -> 182a  :     0.012221 
   166a -> 172a  :     0.060379 
   167a -> 173a  :     0.060477 
   167a -> 174a  :     0.016150 
   168a -> 172a  :     0.019956 
   168a -> 179a  :     0.132860 
   170a -> 181a  :     0.018164 


-------------------------
TD-DFT-EXCITATION SPECTRA
-------------------------

Center of mass = ( -0.7146, -0.0002, -0.0012)
Calculating the Dipole integrals                  ... done
Transforming integrals                            ... done
Calculating the Linear Momentum integrals         ... done
Transforming integrals                            ... done
Calculating angular momentum integrals            ... done
Transforming integrals                            ... done

-----------------------------------------------------------------------------
         ABSORPTION SPECTRUM VIA TRANSITION ELECTRIC DIPOLE MOMENTS
-----------------------------------------------------------------------------
State   Energy    Wavelength  fosc         T2        TX        TY        TZ  
        (cm-1)      (nm)                 (au**2)    (au)      (au)      (au) 
-----------------------------------------------------------------------------
   1   31072.9    321.8   0.109265763   1.15765   0.00019  -1.07593   0.00542
   2   35090.2    285.0   1.004914837   9.42800   3.07050   0.00223   0.00247
   3   35031.5    285.5   0.000660061   0.00620   0.07867  -0.00118  -0.00353
   4   38062.6    262.7   0.320634443   2.77324   1.66526  -0.00087  -0.01262
   5   39024.1    256.3   0.329410316   2.77895   0.00270   1.66578   0.06427
   6   36478.7    274.1   0.306083311   2.76233   1.66200   0.00874   0.00093
   7   38009.9    263.1   0.405053014   3.50825  -0.01080   1.87300   0.00040
   8   39228.6    254.9   0.000463506   0.00389  -0.06224   0.00303   0.00249
   9   39916.0    250.5   0.153262237   1.26405   0.00977  -1.11885  -0.11014
  10   39976.0    250.1   0.155710712   1.28231  -0.00973   1.12888  -0.08857
  11   43238.8    231.3   0.028182227   0.21457   0.46275   0.02092   0.00175
  12   42983.3    232.6   0.222103703   1.70111   0.03789  -1.29995  -0.09896
  13   42878.9    233.2   0.019651015   0.15087  -0.14229  -0.36044  -0.02662
  14   44006.9    227.2   0.008540245   0.06389  -0.25248   0.01152   0.00327
  15   43902.1    227.8   0.017569643   0.13175   0.36210   0.02183  -0.01261
  16   41992.1    238.1   0.008775133   0.06880  -0.03700   0.23389  -0.11280
  17   44821.8    223.1   0.026579404   0.19522   0.00171  -0.43853  -0.05393
  18   46268.8    216.1   0.014987944   0.10664  -0.32656  -0.00152   0.00074
  19   45937.6    217.7   0.253150179   1.81420  -0.00166  -1.34589   0.05267
  20   46340.6    215.8   0.869445582   6.17670  -0.00284  -2.48525   0.01470
  21   46473.3    215.2   1.704333973  12.07332   0.00178  -3.46969  -0.18587
  22   48192.7    207.5   0.839412863   5.73417   2.39459  -0.00129   0.00912
  23   48797.9    204.9   0.224409773   1.51397   0.00422   1.06559  -0.61519
  24   50878.1    196.5   0.000041043   0.00027  -0.00012  -0.01510   0.00613
  25   48758.1    205.1   0.024096940   0.16270  -0.06446   0.39499  -0.05031
  26   49923.6    200.3   0.115501277   0.76165  -0.87204  -0.03442   0.00432
  27   52475.4    190.6   0.004508750   0.02829   0.16785  -0.00954   0.00456
  28   49123.6    203.6   0.202710358   1.35851  -0.00460   0.90556  -0.73379
  29   50704.9    197.2   0.153000484   0.99339   0.99663   0.01052  -0.00313
  30   50423.5    198.3   0.001870166   0.01221  -0.02292   0.01464   0.10710
  31   50984.1    196.1   0.352050048   2.27324   0.00866  -1.50637   0.06323
  32   49324.5    202.7   0.000426541   0.00285  -0.05098   0.01575   0.00041
  33   49912.8    200.3   0.000273296   0.00180   0.03899   0.01664  -0.00230
  34   51048.4    195.9   0.244456364   1.57650  -1.25556   0.00101   0.00894
  35   53001.8    188.7   1.007560379   6.25830   2.50164   0.00653  -0.00643
  36   52391.2    190.9   1.100426887   6.91478  -2.62954   0.00396   0.01683
  37   51303.7    194.9   0.015357513   0.09855  -0.00508  -0.17585  -0.26000
  38   49928.3    200.3   0.009293240   0.06128   0.00443  -0.22443   0.10435
  39   53004.9    188.7   0.005218681   0.03241  -0.01644  -0.11430   0.13813
  40   53841.7    185.7   0.036935059   0.22584   0.47512  -0.00011   0.01002

-----------------------------------------------------------------------------
         ABSORPTION SPECTRUM VIA TRANSITION VELOCITY DIPOLE MOMENTS
-----------------------------------------------------------------------------
State   Energy    Wavelength   fosc        P2         PX        PY        PZ  
        (cm-1)      (nm)                 (au**2)     (au)      (au)      (au) 
-----------------------------------------------------------------------------
   1   31072.9    321.8   0.121995969   0.02591  -0.00003   0.16096  -0.00074
   2   35090.2    285.0   1.069331113   0.25645  -0.50641  -0.00035  -0.00045
   3   35031.5    285.5   0.000054453   0.00001  -0.00354   0.00022   0.00065
   4   38062.6    262.7   0.324885566   0.08452  -0.29071   0.00015   0.00220
   5   39024.1    256.3   0.317841385   0.08477  -0.00047  -0.29093  -0.01154
   6   36478.7    274.1   0.341625853   0.08517  -0.29184  -0.00153  -0.00016
   7   38009.9    263.1   0.422243222   0.10969   0.00195  -0.33119  -0.00040
   8   39228.6    254.9   0.000595171   0.00016   0.01261  -0.00057  -0.00048
   9   39916.0    250.5   0.167355576   0.04566  -0.00185   0.21204   0.02629
  10   39976.0    250.1   0.174881143   0.04778   0.00183  -0.21756   0.02114
  11   43238.8    231.3   0.027328975   0.00808  -0.08977  -0.00414  -0.00038
  12   42983.3    232.6   0.244837920   0.07193  -0.00688   0.26735   0.02006
  13   42878.9    233.2   0.021056565   0.00617   0.02571   0.07403   0.00544
  14   44006.9    227.2   0.005564874   0.00167   0.04084  -0.00236  -0.00053
  15   43902.1    227.8   0.016677510   0.00500  -0.07053  -0.00464   0.00296
  16   41992.1    238.1   0.011340303   0.00325   0.00726  -0.04945   0.02751
  17   44821.8    223.1   0.030322952   0.00929  -0.00026   0.09532   0.01427
  18   46268.8    216.1   0.016988110   0.00537   0.07329   0.00033  -0.00017
  19   45937.6    217.7   0.259829582   0.08158   0.00017   0.28498  -0.01906
  20   46340.6    215.8   0.886768293   0.28085   0.00065   0.52995  -0.00091
  21   46473.3    215.2   1.811369019   0.57533  -0.00038   0.75740   0.04096
  22   48192.7    207.5   0.908394776   0.29920  -0.54699   0.00028  -0.00215
  23   48797.9    204.9   0.246727908   0.08229  -0.00076  -0.24836   0.14354
  24   50878.1    196.5   0.000473565   0.00016   0.01224   0.00350  -0.00165
  25   48758.1    205.1   0.025979079   0.00866   0.01507  -0.09180  -0.00175
  26   49923.6    200.3   0.124839614   0.04260   0.20623   0.00801   0.00011
  27   52475.4    190.6   0.003840827   0.00138  -0.03704   0.00221  -0.00089
  28   49123.6    203.6   0.222737002   0.07478   0.00108  -0.20914   0.17618
  29   50704.9    197.2   0.162294932   0.05624  -0.23714  -0.00250   0.00089
  30   50423.5    198.3   0.001780900   0.00061   0.00547  -0.00507  -0.02362
  31   50984.1    196.1   0.363727391   0.12674  -0.00208   0.35560  -0.01686
  32   49324.5    202.7   0.000361680   0.00012   0.01038  -0.00378  -0.00008
  33   49912.8    200.3   0.000377224   0.00013  -0.01061  -0.00397   0.00055
  34   51048.4    195.9   0.246483721   0.08600   0.29324  -0.00024  -0.00212
  35   53001.8    188.7   0.992733073   0.35961  -0.59967  -0.00158   0.00157
  36   52391.2    190.9   1.139660008   0.40808   0.63879  -0.00094  -0.00411
  37   51303.7    194.9   0.016000919   0.00561   0.00124   0.04262   0.06158
  38   49928.3    200.3   0.011310884   0.00386  -0.00111   0.05485  -0.02916
  39   53004.9    188.7   0.004615069   0.00167   0.00426   0.02888  -0.02863
  40   53841.7    185.7   0.035891657   0.01321  -0.11489  -0.00002  -0.00263

-------------------------------------------------------------------
                             CD SPECTRUM
-------------------------------------------------------------------
State  Energy     Wavelength     R         MX        MY        MZ   
       (cm-1)       (nm)     (1e40*cgs)   (au)      (au)      (au)  
-------------------------------------------------------------------
   1   31072.9    321.8     -5.18923   0.01304   0.02242   2.41963
   2   35090.2    285.0    -51.80807  -0.03578  -0.01282   0.00064
   3   35031.5    285.5     -1.20815  -0.03262   0.00078  -0.00124
   4   38062.6    262.7     -0.31528  -0.00040  -0.01006   0.00053
   5   39024.1    256.3     21.95524   0.00116  -0.04024   1.76744
   6   36478.7    274.1      9.93036   0.01272  -0.00703  -0.01800
   7   38009.9    263.1    -10.62746   0.00404  -0.01177  -1.11362
   8   39228.6    254.9      0.42828  -0.01469   0.00116  -0.00387
   9   39916.0    250.5    -67.57747   0.00074   0.02961   1.00075
  10   39976.0    250.1     61.40558   0.00108   0.02193  -1.19118
  11   43238.8    231.3     -2.05427  -0.00923  -0.00211  -0.02402
  12   42983.3    232.6     49.18589   0.01332   0.05606  -1.78559
  13   42878.9    233.2      6.59380  -0.05107   0.01553  -0.46261
  14   44006.9    227.2     17.07668  -0.14357  -0.00031  -0.00677
  15   43902.1    227.8     -0.86074  -0.00587  -0.00107  -0.02559
  16   41992.1    238.1     14.75865   0.00038   0.00531  -0.26664
  17   44821.8    223.1     -9.38129   0.00087  -0.01902   0.52372
  18   46268.8    216.1     15.72399  -0.10216   0.00222  -0.00514
  19   45937.6    217.7    -53.32027  -0.00183   0.13830   1.38665
  20   46340.6    215.8     35.13896   0.00005  -0.00814   3.69360
  21   46473.3    215.2     63.94129  -0.00309   0.12370  -3.03880
  22   48192.7    207.5    -36.20013  -0.03209  -0.01678   0.00331
  23   48797.9    204.9    142.40585   0.00690   0.24276  -0.07046
  24   50878.1    196.5      0.02526  -0.06047  -0.00403  -0.00236
  25   48758.1    205.1      1.55996  -0.00213  -0.02011  -0.22094
  26   49923.6    200.3     22.05419  -0.05379   0.00565   0.01603
  27   52475.4    190.6     -2.73946  -0.03455  -0.00074  -0.00395
  28   49123.6    203.6    -324.45228   0.00318   0.28952   1.29513
  29   50704.9    197.2     32.76639   0.06982  -0.00442   0.01043
  30   50423.5    198.3     61.96992   0.01251   0.02936   1.22596
  31   50984.1    196.1    106.10937   0.00942  -0.03028   2.83693
  32   49324.5    202.7      2.91613  -0.12126   0.00057  -0.01206
  33   49912.8    200.3      0.55083   0.02866  -0.00100  -0.02928
  34   51048.4    195.9     -6.01851   0.01016   0.00960  -0.00222
  35   53001.8    188.7     23.31178   0.01980  -0.01580  -0.00295
  36   52391.2    190.9    -104.93542   0.08465   0.02166  -0.00414
  37   51303.7    194.9    -12.55276   0.00011  -0.14641   0.20144
  38   49928.3    200.3      1.70598  -0.00017   0.11089   0.27318
  39   53004.9    188.7      1.86439  -0.00087   0.06953   0.08607
  40   53841.7    185.7    -20.37791  -0.09095   0.00240  -0.00112

-------------------------------------------------------------------
         CD SPECTRUM VIA TRANSITION VELOCITY DIPOLE MOMENTS        
-------------------------------------------------------------------
State  Energy     Wavelength     R         MX        MY        MZ   
       (cm-1)       (nm)     (1e40*cgs)   (au)      (au)      (au)  
-------------------------------------------------------------------
   1   31072.9    321.8     -6.07064   0.01304   0.02242   2.41963
   2   35090.2    285.0    -53.44197  -0.03578  -0.01282   0.00064
   3   35031.5    285.5     -0.33967  -0.03262   0.00078  -0.00124
   4   38062.6    262.7     -0.31736  -0.00040  -0.01006   0.00053
   5   39024.1    256.3     23.05525   0.00116  -0.04024   1.76744
   6   36478.7    274.1     10.49116   0.01272  -0.00703  -0.01800
   7   38009.9    263.1    -11.85103   0.00404  -0.01177  -1.11362
   8   39228.6    254.9      0.48550  -0.01469   0.00116  -0.00387
   9   39916.0    250.5    -84.45860   0.00074   0.02961   1.00075
  10   39976.0    250.1     77.50872   0.00108   0.02193  -1.19118
  11   43238.8    231.3     -2.02551  -0.00923  -0.00211  -0.02402
  12   42983.3    232.6     50.34660   0.01332   0.05606  -1.78559
  13   42878.9    233.2      6.47165  -0.05107   0.01553  -0.46261
  14   44006.9    227.2     13.77554  -0.14357  -0.00031  -0.00677
  15   43902.1    227.8     -0.80869  -0.00587  -0.00107  -0.02559
  16   41992.1    238.1     18.71507   0.00038   0.00531  -0.26664
  17   44821.8    223.1    -13.06534   0.00087  -0.01902   0.52372
  18   46268.8    216.1     16.74040  -0.10216   0.00222  -0.00514
  19   45937.6    217.7    -29.23650  -0.00183   0.13830   1.38665
  20   46340.6    215.8     17.15486   0.00005  -0.00814   3.69360
  21   46473.3    215.2     68.54049  -0.00309   0.12370  -3.03880
  22   48192.7    207.5    -37.65833  -0.03209  -0.01678   0.00331
  23   48797.9    204.9    149.29850   0.00690   0.24276  -0.07046
  24   50878.1    196.5      1.52541  -0.06047  -0.00403  -0.00236
  25   48758.1    205.1     -4.67232  -0.00213  -0.02011  -0.22094
  26   49923.6    200.3     22.89318  -0.05379   0.00565   0.01603
  27   52475.4    190.6     -2.52712  -0.03455  -0.00074  -0.00395
  28   49123.6    203.6    -353.07589   0.00318   0.28952   1.29513
  29   50704.9    197.2     33.74388   0.06982  -0.00442   0.01043
  30   50423.5    198.3     59.59701   0.01251   0.02936   1.22596
  31   50984.1    196.1    118.97412   0.00942  -0.03028   2.83693
  32   49324.5    202.7      2.64197  -0.12126   0.00057  -0.01206
  33   49912.8    200.3      0.65590   0.02866  -0.00100  -0.02928
  34   51048.4    195.9     -6.04355   0.01016   0.00960  -0.00222
  35   53001.8    188.7     23.13936   0.01980  -0.01580  -0.00295
  36   52391.2    190.9    -106.79077   0.08465   0.02166  -0.00414
  37   51303.7    194.9    -12.43300   0.00011  -0.14641   0.20144
  38   49928.3    200.3      3.90424  -0.00017   0.11089   0.27318
  39   53004.9    188.7      0.89748  -0.00087   0.06953   0.08607
  40   53841.7    185.7    -20.08746  -0.09095   0.00240  -0.00112

Total run time:    11043.096 sec

           *** ORCA-CIS/TD-DFT FINISHED WITHOUT ERROR ***

Maximum memory used throughout the entire CIS-calculation: 5029.3 MB

-----------------------
CIS/TD-DFT TOTAL ENERGY
-----------------------

    E(SCF)  =  -1975.795184771 Eh
    DE(CIS) =      0.141578708 Eh (Root  1)
    ----------------------------- ---------
    E(tot)  =  -1975.653606063 Eh


-------------------------   --------------------
FINAL SINGLE POINT ENERGY     -1975.653606062902
-------------------------   --------------------


                            ***************************************
                            *     ORCA property calculations      *
                            ***************************************


  WARNING: The energy has been calculated at the MP2 level but the densities
           used in the property calculations are still SCF densities
           MP2 response densities have not been calculated 
           use %mp2 Density relaxed end
           or  %mp2 Density unrelaxed end

                                    ---------------------
                                    Active property flags
                                    ---------------------
   (+) Dipole Moment


------------------------------------------------------------------------------
                       ORCA ELECTRIC PROPERTIES CALCULATION
------------------------------------------------------------------------------

Dipole Moment Calculation                       ... on
Quadrupole Moment Calculation                   ... off
Polarizability Calculation                      ... off
GBWName                                         ... Au-alkyne_2-full_wB2PLYP_def2SVP.gbw
Electron density                                ... Au-alkyne_2-full_wB2PLYP_def2SVP.scfp
The origin for moment calculation is the CENTER OF MASS  = (-0.714600, -0.000155 -0.001243)

-------------
DIPOLE MOMENT
-------------
                                X             Y             Z
Electronic contribution:   -764.81476      -0.12567      -1.23450
Nuclear contribution   :    760.98124       0.12762       1.26625
                        -----------------------------------------
Total Dipole Moment    :     -3.83352       0.00195       0.03175
                        -----------------------------------------
Magnitude (a.u.)       :      3.83365
Magnitude (Debye)      :      9.74436



--------------------
Rotational spectrum 
--------------------
 
Rotational constants in cm-1:     0.003106     0.000590     0.000500 
Rotational constants in MHz :    93.110247    17.673572    14.995213 

 Dipole components along the rotational axes: 
x,y,z [a.u.] :    -3.833518     0.001972     0.031821 
x,y,z [Debye]:    -9.744027     0.005013     0.080883 

 

Timings for individual modules:

Sum of individual times         ...    11941.565 sec (= 199.026 min)
GTO integral calculation        ...        4.589 sec (=   0.076 min)   0.0 %
SCF iterations                  ...      449.959 sec (=   7.499 min)   3.8 %
MP2 module                      ...      443.276 sec (=   7.388 min)   3.7 %
CIS module                      ...    11043.741 sec (= 184.062 min)  92.5 %
                             ****ORCA TERMINATED NORMALLY****
TOTAL RUN TIME: 0 days 3 hours 19 minutes 4 seconds 674 msec
