
                                 *****************
                                 * O   R   C   A *
                                 *****************

                                            #,                                       
                                            ###                                      
                                            ####                                     
                                            #####                                    
                                            ######                                   
                                           ########,                                 
                                     ,,################,,,,,                         
                               ,,#################################,,                 
                          ,,##########################################,,             
                       ,#########################################, ''#####,          
                    ,#############################################,,   '####,        
                  ,##################################################,,,,####,       
                ,###########''''           ''''###############################       
              ,#####''   ,,,,##########,,,,          '''####'''          '####       
            ,##' ,,,,###########################,,,                        '##       
           ' ,,###''''                  '''############,,,                           
         ,,##''                                '''############,,,,        ,,,,,,###''
      ,#''                                            '''#######################'''  
     '                                                          ''''####''''         
             ,#######,   #######,   ,#######,      ##                                
            ,#'     '#,  ##    ##  ,#'     '#,    #''#        ######   ,####,        
            ##       ##  ##   ,#'  ##            #'  '#       #        #'  '#        
            ##       ##  #######   ##           ,######,      #####,   #    #        
            '#,     ,#'  ##    ##  '#,     ,#' ,#      #,         ##   #,  ,#        
             '#######'   ##     ##  '#######'  #'      '#     #####' # '####'        



                  #######################################################
                  #                        -***-                        #
                  #          Department of theory and spectroscopy      #
                  #    Directorship and core code : Frank Neese         #
                  #        Max Planck Institute fuer Kohlenforschung    #
                  #                Kaiser Wilhelm Platz 1               #
                  #                 D-45470 Muelheim/Ruhr               #
                  #                      Germany                        #
                  #                                                     #
                  #                  All rights reserved                #
                  #                        -***-                        #
                  #######################################################


                         Program Version 5.0.4 -  RELEASE  -


 With contributions from (in alphabetic order):
   Daniel Aravena         : Magnetic Suceptibility
   Michael Atanasov       : Ab Initio Ligand Field Theory (pilot matlab implementation)
   Alexander A. Auer      : GIAO ZORA, VPT2 properties, NMR spectrum
   Ute Becker             : Parallelization
   Giovanni Bistoni       : ED, misc. LED, open-shell LED, HFLD
   Martin Brehm           : Molecular dynamics
   Dmytro Bykov           : SCF Hessian
   Vijay G. Chilkuri      : MRCI spin determinant printing, contributions to CSF-ICE
   Dipayan Datta          : RHF DLPNO-CCSD density
   Achintya Kumar Dutta   : EOM-CC, STEOM-CC
   Dmitry Ganyushin       : Spin-Orbit,Spin-Spin,Magnetic field MRCI
   Miquel Garcia          : C-PCM and meta-GGA Hessian, CC/C-PCM, Gaussian charge scheme
   Yang Guo               : DLPNO-NEVPT2, F12-NEVPT2, CIM, IAO-localization
   Andreas Hansen         : Spin unrestricted coupled pair/coupled cluster methods
   Benjamin Helmich-Paris : MC-RPA, TRAH-SCF, COSX integrals
   Lee Huntington         : MR-EOM, pCC
   Robert Izsak           : Overlap fitted RIJCOSX, COSX-SCS-MP3, EOM
   Marcus Kettner         : VPT2
   Christian Kollmar      : KDIIS, OOCD, Brueckner-CCSD(T), CCSD density, CASPT2, CASPT2-K
   Simone Kossmann        : Meta GGA functionals, TD-DFT gradient, OOMP2, MP2 Hessian
   Martin Krupicka        : Initial AUTO-CI
   Lucas Lang             : DCDCAS
   Marvin Lechner         : AUTO-CI (C++ implementation), FIC-MRCC
   Dagmar Lenk            : GEPOL surface, SMD
   Dimitrios Liakos       : Extrapolation schemes; Compound Job, initial MDCI parallelization
   Dimitrios Manganas     : Further ROCIS development; embedding schemes
   Dimitrios Pantazis     : SARC Basis sets
   Anastasios Papadopoulos: AUTO-CI, single reference methods and gradients
   Taras Petrenko         : DFT Hessian,TD-DFT gradient, ASA, ECA, R-Raman, ABS, FL, XAS/XES, NRVS
   Peter Pinski           : DLPNO-MP2, DLPNO-MP2 Gradient
   Christoph Reimann      : Effective Core Potentials
   Marius Retegan         : Local ZFS, SOC
   Christoph Riplinger    : Optimizer, TS searches, QM/MM, DLPNO-CCSD(T), (RO)-DLPNO pert. Triples
   Tobias Risthaus        : Range-separated hybrids, TD-DFT gradient, RPA, STAB
   Michael Roemelt        : Original ROCIS implementation
   Masaaki Saitow         : Open-shell DLPNO-CCSD energy and density
   Barbara Sandhoefer     : DKH picture change effects
   Avijit Sen             : IP-ROCIS
   Kantharuban Sivalingam : CASSCF convergence, NEVPT2, FIC-MRCI
   Bernardo de Souza      : ESD, SOC TD-DFT
   Georgi Stoychev        : AutoAux, RI-MP2 NMR, DLPNO-MP2 response
   Willem Van den Heuvel  : Paramagnetic NMR
   Boris Wezisla          : Elementary symmetry handling
   Frank Wennmohs         : Technical directorship


 We gratefully acknowledge several colleagues who have allowed us to
 interface, adapt or use parts of their codes:
   Stefan Grimme, W. Hujo, H. Kruse, P. Pracht,  : VdW corrections, initial TS optimization,
                  C. Bannwarth, S. Ehlert          DFT functionals, gCP, sTDA/sTD-DF
   Ed Valeev, F. Pavosevic, A. Kumar             : LibInt (2-el integral package), F12 methods
   Garnet Chan, S. Sharma, J. Yang, R. Olivares  : DMRG
   Ulf Ekstrom                                   : XCFun DFT Library
   Mihaly Kallay                                 : mrcc  (arbitrary order and MRCC methods)
   Jiri Pittner, Ondrej Demel                    : Mk-CCSD
   Frank Weinhold                                : gennbo (NPA and NBO analysis)
   Christopher J. Cramer and Donald G. Truhlar   : smd solvation model
   Lars Goerigk                                  : TD-DFT with DH, B97 family of functionals
   V. Asgeirsson, H. Jonsson                     : NEB implementation
   FAccTs GmbH                                   : IRC, NEB, NEB-TS, DLPNO-Multilevel, CI-OPT
                                                   MM, QMMM, 2- and 3-layer-ONIOM, Crystal-QMMM,
                                                   LR-CPCM, SF, NACMEs, symmetry and pop. for TD-DFT,
                                                   nearIR, NL-DFT gradient (VV10), updates on ESD,
                                                   ML-optimized integration grids
   S Lehtola, MJT Oliveira, MAL Marques          : LibXC Library
   Liviu Ungur et al                             : ANISO software


 Your calculation uses the libint2 library for the computation of 2-el integrals
 For citations please refer to: http://libint.valeyev.net

 Your ORCA version has been built with support for libXC version: 5.1.0
 For citations please refer to: https://tddft.org/programs/libxc/

 This ORCA versions uses:
   CBLAS   interface :  Fast vector & matrix operations
   LAPACKE interface :  Fast linear algebra routines
   SCALAPACK package :  Parallel linear algebra routines
   Shared memory     :  Shared parallel matrices
   BLAS/LAPACK       :  OpenBLAS 0.3.15  USE64BITINT DYNAMIC_ARCH NO_AFFINITY Zen SINGLE_THREADED
        Core in use  :  Zen
   Copyright (c) 2011-2014, The OpenBLAS Project


Your calculation utilizes the SMD solvation module
Please cite in your paper:
A.V. Marenich, C.J. Cramer, D.G. Truhlar J. Phys. Chem. B, 113, (2009), 6378 

================================================================================

cite the ECPs for Au [Def2-ECP] as follows:
Ce-Yb(ecp-28): M. Dolg, H. Stoll, H.Preuss, J. Chem. Phys., 1989, 90, 1730-1734.
Y-Cd(ecp-28), Hf-Hg(ecp-46): D. Andrae,U. Haeussermann, M. Dolg, H. Stoll, H. Preuss, Theor. Chim. Acta, 1990, 77, 123-141.
In-Sb(ecp-28), Tl-Bi(ecp-46): B. Metz, H. Stoll, M. Dolg, J. Chem. Phys., 2000, 113, 2563-2569.
Te-Xe(ecp-28), Po-Rn(ecp-46): K. A. Peterson, D. Figgen, E. Goll, H. Stoll, M. Dolg, J. Chem. Phys., 2003, 119, 11113-11123.
Rb(ecp-28), Cs(ecp-46): T. Leininger, A. Nicklass, W. Kuechle, H. Stoll, M. Dolg, A. Bergner, Chem. Phys. Lett., 1996, 255, 274-280.
Sr(ecp-28), Ba(ecp-46): M. Kaupp, P. V. Schleyer, H. Stoll and H. Preuss, J. Chem. Phys., 1991, 94, 1360-1366.
La(ecp-46): M. Dolg, H. Stoll, A. Savin, H. Preuss, Theor. Chim. Acta, 1989, 75, 173-194.
Lu(ecp-28): X. Cao, M. Dolg, J. Chem. Phys., 2001, 115, 7348-7355.

ECP parameters for Au [Def2-ECP] have been obtained from:
TURBOMOLE (7.0.2)

----- Orbital basis set information -----
Your calculation utilizes the basis: def2-SVP
   F. Weigend and R. Ahlrichs, Phys. Chem. Chem. Phys. 7, 3297 (2005).

----- AuxJ basis set information -----
Your calculation utilizes the auxiliary basis: def2/J
   F. Weigend, Phys. Chem. Chem. Phys. 8, 1057 (2006).

----- AuxC basis set information -----
Your calculation utilizes the auxiliary basis: def2-SVP/C
  H-La, Hf-Rn : A. Hellweg, C. Hattig, S. Hofener and W. Klopper, Theor. Chem. Acc. 117, 587 (2007).
        Ce-Lu : J. Chmela and M. E. Harding, Mol. Phys. (2018).

================================================================================
                                        WARNINGS
                       Please study these warnings very carefully!
================================================================================

INFO   : Checking CIS options ...
  ===> : (D) CORRECTION FOUND - SETTING MODE=3
  ===> : JK MODE FOUND - ACTIVATING RI-MP2 CODE
  ===> : MP2 AND CIS FOUND - CHECKING
WARNING: CIS(D) and MP2 runs must have the same orbital window
  ===> : adjusting orbital windows

WARNING: No MP2 level density has been requested!
         To caclulate MP2 level properties use
         %mp2 Density relaxed end
         or
         %mp2 Density unrelaxed end
         Otherwise for double-hybrid DFT only the energy is correct!

WARNING: The frozen-core approximation is turned on by default for 
         the MP2 part of double-hybrid DFT.

WARNING: CIS/ROCIS methods need fully converged wavefunctions
  ===> : Setting SCFConvForced true
         You can overwrite this default with %scf ConvForced false 


INFO   : the flag for use of the SHARK integral package has been found!

================================================================================
                                       INPUT FILE
================================================================================
NAME = Au-alkyne_2-full_B2GPPLYP_def2SVP.inp
|  1> %maxcore 6000
|  2> %pal
|  3>  nprocs 8
|  4> end
|  5> ! RI-B2GP-PLYP def2-SVP def2/J def2-SVP/C RIJCOSX CPCM TIGHTSCF
|  6> 
|  7> %TDDFT 
|  8>     DCORR      4
|  9>     NROOTS    40
| 10>     TDA       FALSE
| 11> END
| 12> 
| 13> %CPCM
| 14>     SMD		TRUE
| 15>     SMDsolvent	"Acetonitrile"
| 16> END
| 17> 
| 18> * xyz 0 1
| 19> Au                 -4.55610900   -0.00065700   -0.00742000
| 20> C                  -7.22581000    1.19989100    0.00366500
| 21> C                  -7.22686800   -1.19841200    0.02526000
| 22> C                  -8.62468400   -1.21246900    0.03707300
| 23> C                  -9.30875400    0.00179600    0.03062700
| 24> C                  -8.62362200    1.21536500    0.01368300
| 25> C                  -6.31258900    2.35092900   -0.01260700
| 26> C                  -4.91233800    2.08377800   -0.02103800
| 27> C                  -4.03073100    3.16317200   -0.03755100
| 28> C                  -4.50455500    4.48040500   -0.04537200
| 29> C                  -5.87658500    4.73454900   -0.03628100
| 30> C                  -6.77911900    3.67397100   -0.01984200
| 31> H                  -9.16746500   -2.15763800    0.05044200
| 32> H                 -10.40062400    0.00235800    0.03897900
| 33> H                  -9.16557800    2.16109200    0.00852800
| 34> H                  -2.95037500    2.98720800   -0.04490100
| 35> H                  -3.79628400    5.31345200   -0.05864300
| 36> H                  -6.24576900    5.76258400   -0.04220600
| 37> H                  -7.85301400    3.87861300   -0.01305900
| 38> C                  -6.31470300   -2.35038600    0.02780500
| 39> C                  -6.78246400   -3.67289900    0.04490100
| 40> C                  -4.91422200   -2.08473900    0.01291500
| 41> C                  -5.88092600   -4.73444300    0.04796700
| 42> H                  -7.85653800   -3.87638500    0.05631300
| 43> C                  -4.03362600   -3.16507900    0.01645300
| 44> C                  -4.50866400   -4.48178700    0.03387300
| 45> H                  -6.25106000   -5.76206300    0.06165200
| 46> H                  -2.95310100   -2.99029000    0.00606400
| 47> H                  -3.80115700   -5.31558400    0.03662800
| 48> N                  -6.60305800    0.00041700    0.00940600
| 49> C                  -2.57853500   -0.00180100   -0.01843800
| 50> C                  -1.34813500   -0.00248200   -0.02012500
| 51> C                   0.07667200   -0.00330700   -0.01956400
| 52> C                   0.80462800    0.81994600   -0.90326900
| 53> C                   0.80171100   -0.82692900    0.86626300
| 54> C                   2.19301300    0.81303300   -0.90817700
| 55> H                   0.26577800    1.46052700   -1.60480400
| 56> C                   2.18999800   -0.81962500    0.87629500
| 57> H                   0.26045900   -1.46745900    1.56599600
| 58> C                   2.90003800   -0.00291800   -0.01440900
| 59> H                   2.73833300    1.43568700   -1.62033400
| 60> H                   2.73277800   -1.44197600    1.59065300
| 61> C                   5.13017900   -1.12972200   -0.01493000
| 62> C                   5.12780800    1.12811300    0.00198500
| 63> C                   4.79428800   -2.48486500   -0.07171500
| 64> C                   6.48497100   -0.72070100   -0.00576700
| 65> C                   4.78862900    2.48255700    0.05565000
| 66> C                   6.48344900    0.72182400    0.00655100
| 67> C                   5.83116500   -3.41123200   -0.09215700
| 68> H                   3.75484700   -2.81707200   -0.10659600
| 69> C                   7.50720400   -1.68032400   -0.02511400
| 70> C                   5.82336700    3.41101000    0.08704100
| 71> H                   3.74821700    2.81265700    0.07988500
| 72> C                   7.50347700    1.68350800    0.03675600
| 73> C                   7.19623400   -3.04103700   -0.06189600
| 74> H                   5.56919400   -4.47217500   -0.13525100
| 75> H                   8.54544900   -1.34193300   -0.01524400
| 76> C                   7.18941600    3.04358200    0.07083200
| 77> H                   5.55884300    4.47141000    0.12773300
| 78> H                   8.54243700    1.34717700    0.03758300
| 79> N                   4.31049800   -0.00165500   -0.01068900
| 80> C                   8.25679100    4.14021400    0.09477500
| 81> C                   8.26601200   -4.13550300   -0.07468100
| 82> C                   8.11580700   -4.98114700   -1.34421600
| 83> H                   8.87453700   -5.77843600   -1.37196300
| 84> H                   7.13068800   -5.46648600   -1.40458300
| 85> H                   8.24218200   -4.37042000   -2.25119600
| 86> C                   9.67632800   -3.55430600   -0.04457300
| 87> H                  10.41917600   -4.36540600   -0.05285800
| 88> H                   9.88104100   -2.91615600   -0.91706500
| 89> H                   9.85868800   -2.95468300    0.85966600
| 90> C                   8.08535600   -5.03588800    1.15279500
| 91> H                   8.18763600   -4.46526500    2.08849800
| 92> H                   7.09971300   -5.52383800    1.16691700
| 93> H                   8.84456400   -5.83315000    1.16517000
| 94> C                   8.09064200    4.98676200    1.36171900
| 95> H                   8.84784700    5.78517900    1.39748400
| 96> H                   7.10424100    5.47080600    1.41025900
| 97> H                   8.20740200    4.37706200    2.27067500
| 98> C                   9.66852100    3.56183200    0.08113200
| 99> H                   9.86237900    2.96192500   -0.82051900
|100> H                  10.40959800    4.37443100    0.09724200
|101> H                   9.86451800    2.92471300    0.95638000
|102> C                   8.08812900    5.03904600   -1.13554000
|103> H                   8.20281700    4.46782900   -2.06943900
|104> H                   7.10140500    5.52432100   -1.16162900
|105> H                   8.84534900    5.83828400   -1.13983900
|106> *
|107> 
|108>                          ****END OF INPUT****
================================================================================

                       ****************************
                       * Single Point Calculation *
                       ****************************

---------------------------------
CARTESIAN COORDINATES (ANGSTROEM)
---------------------------------
  Au    -4.556109   -0.000657   -0.007420
  C     -7.225810    1.199891    0.003665
  C     -7.226868   -1.198412    0.025260
  C     -8.624684   -1.212469    0.037073
  C     -9.308754    0.001796    0.030627
  C     -8.623622    1.215365    0.013683
  C     -6.312589    2.350929   -0.012607
  C     -4.912338    2.083778   -0.021038
  C     -4.030731    3.163172   -0.037551
  C     -4.504555    4.480405   -0.045372
  C     -5.876585    4.734549   -0.036281
  C     -6.779119    3.673971   -0.019842
  H     -9.167465   -2.157638    0.050442
  H    -10.400624    0.002358    0.038979
  H     -9.165578    2.161092    0.008528
  H     -2.950375    2.987208   -0.044901
  H     -3.796284    5.313452   -0.058643
  H     -6.245769    5.762584   -0.042206
  H     -7.853014    3.878613   -0.013059
  C     -6.314703   -2.350386    0.027805
  C     -6.782464   -3.672899    0.044901
  C     -4.914222   -2.084739    0.012915
  C     -5.880926   -4.734443    0.047967
  H     -7.856538   -3.876385    0.056313
  C     -4.033626   -3.165079    0.016453
  C     -4.508664   -4.481787    0.033873
  H     -6.251060   -5.762063    0.061652
  H     -2.953101   -2.990290    0.006064
  H     -3.801157   -5.315584    0.036628
  N     -6.603058    0.000417    0.009406
  C     -2.578535   -0.001801   -0.018438
  C     -1.348135   -0.002482   -0.020125
  C      0.076672   -0.003307   -0.019564
  C      0.804628    0.819946   -0.903269
  C      0.801711   -0.826929    0.866263
  C      2.193013    0.813033   -0.908177
  H      0.265778    1.460527   -1.604804
  C      2.189998   -0.819625    0.876295
  H      0.260459   -1.467459    1.565996
  C      2.900038   -0.002918   -0.014409
  H      2.738333    1.435687   -1.620334
  H      2.732778   -1.441976    1.590653
  C      5.130179   -1.129722   -0.014930
  C      5.127808    1.128113    0.001985
  C      4.794288   -2.484865   -0.071715
  C      6.484971   -0.720701   -0.005767
  C      4.788629    2.482557    0.055650
  C      6.483449    0.721824    0.006551
  C      5.831165   -3.411232   -0.092157
  H      3.754847   -2.817072   -0.106596
  C      7.507204   -1.680324   -0.025114
  C      5.823367    3.411010    0.087041
  H      3.748217    2.812657    0.079885
  C      7.503477    1.683508    0.036756
  C      7.196234   -3.041037   -0.061896
  H      5.569194   -4.472175   -0.135251
  H      8.545449   -1.341933   -0.015244
  C      7.189416    3.043582    0.070832
  H      5.558843    4.471410    0.127733
  H      8.542437    1.347177    0.037583
  N      4.310498   -0.001655   -0.010689
  C      8.256791    4.140214    0.094775
  C      8.266012   -4.135503   -0.074681
  C      8.115807   -4.981147   -1.344216
  H      8.874537   -5.778436   -1.371963
  H      7.130688   -5.466486   -1.404583
  H      8.242182   -4.370420   -2.251196
  C      9.676328   -3.554306   -0.044573
  H     10.419176   -4.365406   -0.052858
  H      9.881041   -2.916156   -0.917065
  H      9.858688   -2.954683    0.859666
  C      8.085356   -5.035888    1.152795
  H      8.187636   -4.465265    2.088498
  H      7.099713   -5.523838    1.166917
  H      8.844564   -5.833150    1.165170
  C      8.090642    4.986762    1.361719
  H      8.847847    5.785179    1.397484
  H      7.104241    5.470806    1.410259
  H      8.207402    4.377062    2.270675
  C      9.668521    3.561832    0.081132
  H      9.862379    2.961925   -0.820519
  H     10.409598    4.374431    0.097242
  H      9.864518    2.924713    0.956380
  C      8.088129    5.039046   -1.135540
  H      8.202817    4.467829   -2.069439
  H      7.101405    5.524321   -1.161629
  H      8.845349    5.838284   -1.139839

----------------------------
CARTESIAN COORDINATES (A.U.)
----------------------------
  NO LB      ZA    FRAG     MASS         X           Y           Z
   0 Au   19.0000*   0   196.966   -8.609798   -0.001242   -0.014022
   1 C     6.0000    0    12.011  -13.654802    2.267465    0.006926
   2 C     6.0000    0    12.011  -13.656801   -2.264670    0.047734
   3 C     6.0000    0    12.011  -16.298291   -2.291234    0.070058
   4 C     6.0000    0    12.011  -17.590996    0.003394    0.057877
   5 C     6.0000    0    12.011  -16.296284    2.296707    0.025857
   6 C     6.0000    0    12.011  -11.929064    4.442612   -0.023824
   7 C     6.0000    0    12.011   -9.282973    3.937770   -0.039756
   8 C     6.0000    0    12.011   -7.616978    5.977529   -0.070961
   9 C     6.0000    0    12.011   -8.512375    8.466738   -0.085741
  10 C     6.0000    0    12.011  -11.105136    8.947001   -0.068561
  11 C     6.0000    0    12.011  -12.810678    6.942799   -0.037496
  12 H     1.0000    0     1.008  -17.323998   -4.077345    0.095322
  13 H     1.0000    0     1.008  -19.654331    0.004456    0.073660
  14 H     1.0000    0     1.008  -17.320432    4.083872    0.016116
  15 H     1.0000    0     1.008   -5.575401    5.645005   -0.084851
  16 H     1.0000    0     1.008   -7.173937   10.040969   -0.110819
  17 H     1.0000    0     1.008  -11.802793   10.889706   -0.079758
  18 H     1.0000    0     1.008  -14.840046    7.329516   -0.024678
  19 C     6.0000    0    12.011  -11.933059   -4.441586    0.052544
  20 C     6.0000    0    12.011  -12.816999   -6.940773    0.084851
  21 C     6.0000    0    12.011   -9.286534   -3.939586    0.024406
  22 C     6.0000    0    12.011  -11.113340   -8.946801    0.090644
  23 H     1.0000    0     1.008  -14.846705   -7.325306    0.106416
  24 C     6.0000    0    12.011   -7.622448   -5.981133    0.031092
  25 C     6.0000    0    12.011   -8.520140   -8.469350    0.064011
  26 H     1.0000    0     1.008  -11.812791  -10.888721    0.116505
  27 H     1.0000    0     1.008   -5.580552   -5.650829    0.011459
  28 H     1.0000    0     1.008   -7.183146  -10.044998    0.069217
  29 N     7.0000    0    14.007  -12.477971    0.000788    0.017775
  30 C     6.0000    0    12.011   -4.872725   -0.003403   -0.034843
  31 C     6.0000    0    12.011   -2.547606   -0.004690   -0.038031
  32 C     6.0000    0    12.011    0.144889   -0.006249   -0.036971
  33 C     6.0000    0    12.011    1.520527    1.549473   -1.706931
  34 C     6.0000    0    12.011    1.515014   -1.562669    1.637000
  35 C     6.0000    0    12.011    4.144194    1.536410   -1.716206
  36 H     1.0000    0     1.008    0.502248    2.759996   -3.032640
  37 C     6.0000    0    12.011    4.138496   -1.548867    1.655958
  38 H     1.0000    0     1.008    0.492196   -2.773096    2.959304
  39 C     6.0000    0    12.011    5.480278   -0.005514   -0.027229
  40 H     1.0000    0     1.008    5.174699    2.713055   -3.061988
  41 H     1.0000    0     1.008    5.164202   -2.724940    3.005899
  42 C     6.0000    0    12.011    9.694633   -2.134865   -0.028214
  43 C     6.0000    0    12.011    9.690153    2.131825    0.003751
  44 C     6.0000    0    12.011    9.059891   -4.695714   -0.135522
  45 C     6.0000    0    12.011   12.254819   -1.361928   -0.010898
  46 C     6.0000    0    12.011    9.049197    4.691353    0.105163
  47 C     6.0000    0    12.011   12.251943    1.364050    0.012380
  48 C     6.0000    0    12.011   11.019305   -6.446294   -0.174151
  49 H     1.0000    0     1.008    7.095633   -5.323495   -0.201437
  50 C     6.0000    0    12.011   14.186560   -3.175352   -0.047459
  51 C     6.0000    0    12.011   11.004569    6.445875    0.164484
  52 H     1.0000    0     1.008    7.083104    5.315151    0.150961
  53 C     6.0000    0    12.011   14.179517    3.181369    0.069459
  54 C     6.0000    0    12.011   13.598911   -5.746727   -0.116966
  55 H     1.0000    0     1.008   10.524251   -8.451186   -0.255587
  56 H     1.0000    0     1.008   16.148558   -2.535886   -0.028807
  57 C     6.0000    0    12.011   13.586027    5.751536    0.133853
  58 H     1.0000    0     1.008   10.504691    8.449740    0.241380
  59 H     1.0000    0     1.008   16.142866    2.545796    0.071022
  60 N     7.0000    0    14.007    8.145661   -0.003127   -0.020199
  61 C     6.0000    0    12.011   15.603074    7.823871    0.179099
  62 C     6.0000    0    12.011   15.620499   -7.814968   -0.141127
  63 C     6.0000    0    12.011   15.336653   -9.413004   -2.540200
  64 H     1.0000    0     1.008   16.770444  -10.919662   -2.592634
  65 H     1.0000    0     1.008   13.475047  -10.330161   -2.654277
  66 H     1.0000    0     1.008   15.575467   -8.258897   -4.254144
  67 C     6.0000    0    12.011   18.285610   -6.716665   -0.084231
  68 H     1.0000    0     1.008   19.689389   -8.249422   -0.099887
  69 H     1.0000    0     1.008   18.672461   -5.510736   -1.733002
  70 H     1.0000    0     1.008   18.630220   -5.583542    1.624533
  71 C     6.0000    0    12.011   15.279109   -9.516449    2.178467
  72 H     1.0000    0     1.008   15.472390   -8.438128    3.946689
  73 H     1.0000    0     1.008   13.416513  -10.438541    2.205154
  74 H     1.0000    0     1.008   16.713804  -11.023056    2.201852
  75 C     6.0000    0    12.011   15.289098    9.423614    2.573276
  76 H     1.0000    0     1.008   16.720008   10.932404    2.640862
  77 H     1.0000    0     1.008   13.425070   10.338325    2.665003
  78 H     1.0000    0     1.008   15.509742    8.271448    4.290954
  79 C     6.0000    0    12.011   18.270857    6.730887    0.153317
  80 H     1.0000    0     1.008   18.637195    5.597227   -1.550556
  81 H     1.0000    0     1.008   19.671289    8.266477    0.183761
  82 H     1.0000    0     1.008   18.641237    5.526907    1.807296
  83 C     6.0000    0    12.011   15.284349    9.522417   -2.145860
  84 H     1.0000    0     1.008   15.501078    8.442973   -3.910673
  85 H     1.0000    0     1.008   13.419711   10.439454   -2.195161
  86 H     1.0000    0     1.008   16.715287   11.032758   -2.153984
* core charge reduced due to ECP

--------------------------------
INTERNAL COORDINATES (ANGSTROEM)
--------------------------------
 Au     0   0   0     0.000000000000     0.00000000     0.00000000
 C      1   0   0     2.927241330490     0.00000000     0.00000000
 C      2   1   0     2.398400455136    65.81549074     0.00000000
 C      3   2   1     1.397936592294    90.60575953   179.99078595
 C      4   3   2     1.393711880570   118.81504212     0.05799218
 C      5   4   3     1.393715420852   121.15828711   359.95540582
 C      2   1   3     1.469396423798    75.78356888   179.93660097
 C      7   2   1     1.425532743069   117.62843979     0.00000000
 C      8   7   2     1.393770063122   118.44092369   179.95031649
 C      9   8   7     1.399883254884   120.97661375     0.00000000
 C     10   9   8     1.395398917843   120.27467623     0.00000000
 C     11  10   9     1.392718046110   119.90523517   359.97691601
 H      4   3   2     1.090015771759   120.44672676   180.01975235
 H      5   4   3     1.091902087482   119.42110330   179.95422745
 H      6   5   4     1.090019467023   120.73842611   179.98746992
 H      9   8   7     1.094617028249   119.99193768   180.03470486
 H     10   9   8     1.093522397160   119.84553280   180.01842018
 H     11  10   9     1.092331402417   120.24456594   179.98883070
 H     12  11  10     1.093240517122   119.61019363   180.01710834
 C      3   2   1     1.469386117032   141.59996480     0.00000000
 C     20   3   2     1.402901729098   122.14731056   179.94304263
 C     20   3   2     1.425530452874   117.62988896     0.00000000
 C     21  20   3     1.392715272314   120.18073002   180.06144865
 H     21  20   3     1.093239106242   120.21005789     0.03603702
 C     22  20   3     1.393770550794   118.43988333   179.93574219
 C     23  21  20     1.395398398959   119.90476991     0.00000000
 H     23  21  20     1.092332056465   119.85060596   179.97911569
 H     25  22  20     1.094620208779   119.99189037   180.04757101
 H     26  23  21     1.093522373929   119.88008612   179.97935742
 N      3   2   1     1.351510723841    27.46384452     0.00000000
 C      1   2   3     1.977605023895   155.82004628   180.36687931
 C     31   1   2     1.230401344981   179.75933532    89.84012438
 C     32  31   1     1.424807349291   179.89887180     1.17046107
 C     33  32  31     1.410177282107   121.03964441   222.14773998
 C     33  32  31     1.410221338774   120.97852212    42.08129483
 C     34  33  32     1.388410885242   121.03187151   180.39433731
 H     34  33  32     1.092178875590   119.35636694   359.41868445
 C     35  33  32     1.388342459125   121.03603968   180.59707932
 H     35  33  32     1.092180699195   119.35176602   359.56673242
 C     36  34  33     1.401599665686   120.33643054   359.01042909
 H     36  34  33     1.091897201556   119.92601230   178.18387221
 H     38  35  33     1.091896628699   119.92112405   178.13128372
 C     40  36  34     2.498642912810   135.44970541   152.04653620
 C     43  40  36     2.257899604963    63.13484256    65.86818231
 C     43  40  36     1.397304494573   102.87438107   247.77951294
 C     43  40  36     1.415218535165   136.39349534    65.94348722
 C     44  43  40     1.397297704644   165.89385832     7.54517354
 C     44  43  40     1.415222286695    73.25824707   179.88188110
 C     45  43  40     1.390570964454   117.86768609   179.75826006
 H     45  43  40     1.091794746045   121.68516721     0.19413304
 C     46  43  40     1.402216429381   120.00028386   180.72031108
 C     47  44  48     1.390572938301   117.86838708     1.22359289
 H     47  44  48     1.091792322271   121.68457248   181.65977799
 C     48  44  43     1.402214526620   119.99951455   180.81468325
 C     51  46  43     1.396279028272   120.32684963     0.40150106
 H     49  45  43     1.093657143225   117.91877842   179.92011149
 H     51  46  43     1.092043298503   118.74490311   180.13949279
 C     54  48  44     1.396279617760   120.32824864     0.39899118
 H     52  47  44     1.093653027902   117.91987636   179.92190113
 H     54  48  44     1.092042630619   118.74238607   180.12834135
 N     43  40  36     1.394428228462    27.19166409    65.75115275
 C     58  54  48     1.530511156868   122.78257296   180.44642534
 C     55  51  46     1.530504573879   122.78146575   180.43581303
 C     63  55  51     1.532773444768   109.44794265   239.61191227
 H     64  63  55     1.100959063013   110.66324596   180.21771461
 H     64  63  55     1.099844336154   112.12892251   299.90304617
 H     64  63  55     1.100713781850   111.41470323    60.58008703
 C     63  55  51     1.525676133499   111.93419880   359.92461454
 H     68  63  55     1.099897723577   110.07458716   179.90138560
 H     68  63  55     1.100175042860   112.16763565   299.19656274
 H     68  63  55     1.100205017644   112.15141857    60.61258451
 C     63  55  51     1.532979800629   109.32644667   120.13890106
 H     72  63  55     1.100732442848   111.42194839   299.58729492
 H     72  63  55     1.099903067017   112.11382316    60.24966307
 H     72  63  55     1.100988930250   110.67404169   179.94937280
 C     62  58  54     1.532773990398   109.45482046   239.51240114
 H     76  62  58     1.100957879821   110.66029709   180.18492445
 H     76  62  58     1.099837105365   112.13353078   299.86481486
 H     76  62  58     1.100712495403   111.41666959    60.54795848
 C     62  58  54     1.525678033621   111.93424810   359.82729605
 H     80  62  58     1.100201735417   112.15303084    60.62040458
 H     80  62  58     1.099896261849   110.07444790   179.90810846
 H     80  62  58     1.100179306147   112.16457118   299.20545236
 C     62  58  54     1.532977766862   109.31912102   120.03871470
 H     84  62  58     1.100731366244   111.41920012   299.54897900
 H     84  62  58     1.099907593265   112.11235094    60.20608939
 H     84  62  58     1.100991367107   110.67686333   179.91260251

---------------------------
INTERNAL COORDINATES (A.U.)
---------------------------
 Au     0   0   0     0.000000000000     0.00000000     0.00000000
 C      1   0   0     5.531684442522     0.00000000     0.00000000
 C      2   1   0     4.532320019680    65.81549074     0.00000000
 C      3   2   1     2.641717312022    90.60575953   179.99078595
 C      4   3   2     2.633733763869   118.81504212     0.05799218
 C      5   4   3     2.633740454033   121.15828711   359.95540582
 C      2   1   3     2.776756823141    75.78356888   179.93660097
 C      7   2   1     2.693866479339   117.62843979     0.00000000
 C      8   7   2     2.633843712958   118.44092369   179.95031649
 C      9   8   7     2.645395971194   120.97661375     0.00000000
 C     10   9   8     2.636921802293   120.27467623     0.00000000
 C     11  10   9     2.631855688918   119.90523517   359.97691601
 H      4   3   2     2.059831290279   120.44672676   180.01975235
 H      5   4   3     2.063395910398   119.42110330   179.95422745
 H      6   5   4     2.059838273317   120.73842611   179.98746992
 H      9   8   7     2.068526404917   119.99193768   180.03470486
 H     10   9   8     2.066457851942   119.84553280   180.01842018
 H     11  10   9     2.064207198050   120.24456594   179.98883070
 H     12  11  10     2.065925175868   119.61019363   180.01710834
 C      3   2   1     2.776737346176   141.59996480     0.00000000
 C     20   3   2     2.651100060800   122.14731056   179.94304263
 C     20   3   2     2.693862151496   117.62988896     0.00000000
 C     21  20   3     2.631850447203   120.18073002   180.06144865
 H     21  20   3     2.065922509690   120.21005789     0.03603702
 C     22  20   3     2.633844634525   118.43988333   179.93574219
 C     23  21  20     2.636920821744   119.90476991     0.00000000
 H     23  21  20     2.064208434022   119.85060596   179.97911569
 H     25  22  20     2.068532415248   119.99189037   180.04757101
 H     26  23  21     2.066457808041   119.88008612   179.97935742
 N      3   2   1     2.553985135117    27.46384452     0.00000000
 C      1   2   3     3.737131896229   155.82004628   180.36687931
 C     31   1   2     2.325121576822   179.75933532    89.84012438
 C     32  31   1     2.692495683759   179.89887180     1.17046107
 C     33  32  31     2.664848863459   121.03964441   222.14773998
 C     33  32  31     2.664932118495   120.97852212    42.08129483
 C     34  33  32     2.623716334462   121.03187151   180.39433731
 H     34  33  32     2.063918964120   119.35636694   359.41868445
 C     35  33  32     2.623587027841   121.03603968   180.59707932
 H     35  33  32     2.063922410232   119.35176602   359.56673242
 C     36  34  33     2.648639517541   120.33643054   359.01042909
 H     36  34  33     2.063386677335   119.92601230   178.18387221
 H     38  35  33     2.063385594794   119.92112405   178.13128372
 C     40  36  34     4.721750811675   135.44970541   152.04653620
 C     43  40  36     4.266811891269    63.13484256    65.86818231
 C     43  40  36     2.640522820441   102.87438107   247.77951294
 C     43  40  36     2.674375451111   136.39349534    65.94348722
 C     44  43  40     2.640509989333   165.89385832     7.54517354
 C     44  43  40     2.674382540475    73.25824707   179.88188110
 C     45  43  40     2.627798292600   117.86768609   179.75826006
 H     45  43  40     2.063193064479   121.68516721     0.19413304
 C     46  43  40     2.649805032016   120.00028386   180.72031108
 C     47  44  48     2.627802022630   117.86838708     1.22359289
 H     47  44  48     2.063188484209   121.68457248   181.65977799
 C     48  44  43     2.649801436318   119.99951455   180.81468325
 C     51  46  43     2.638584969972   120.32684963     0.40150106
 H     49  45  43     2.066712485101   117.91877842   179.92011149
 H     51  46  43     2.063662760555   118.74490311   180.13949279
 C     54  48  44     2.638586083943   120.32824864     0.39899118
 H     52  47  44     2.066704708269   117.91987636   179.92190113
 H     54  48  44     2.063661498437   118.74238607   180.12834135
 N     43  40  36     2.635087465202    27.19166409    65.75115275
 C     58  54  48     2.892246931392   122.78257296   180.44642534
 C     55  51  46     2.892234491345   122.78146575   180.43581303
 C     63  55  51     2.896522035959   109.44794265   239.61191227
 H     64  63  55     2.080511113753   110.66324596   180.21771461
 H     64  63  55     2.078404585276   112.12892251   299.90304617
 H     64  63  55     2.080047599529   111.41470323    60.58008703
 C     63  55  51     2.883110061373   111.93419880   359.92461454
 H     68  63  55     2.078505472883   110.07458716   179.90138560
 H     68  63  55     2.079029530381   112.16763565   299.19656274
 H     68  63  55     2.079086174514   112.15141857    60.61258451
 C     63  55  51     2.896911992022   109.32644667   120.13890106
 H     72  63  55     2.080082863705   111.42194839   299.58729492
 H     72  63  55     2.078515570522   112.11382316    60.24966307
 H     72  63  55     2.080567554651   110.67404169   179.94937280
 C     62  58  54     2.896523067050   109.45482046   239.51240114
 H     76  62  58     2.080508877843   110.66029709   180.18492445
 H     76  62  58     2.078390921064   112.13353078   299.86481486
 H     76  62  58     2.080045168496   111.41666959    60.54795848
 C     62  58  54     2.883113652083   111.93424810   359.82729605
 H     80  62  58     2.079079972003   112.15303084    60.62040458
 H     80  62  58     2.078502710619   110.07444790   179.90810846
 H     80  62  58     2.079037586825   112.16457118   299.20545236
 C     62  58  54     2.896908148759   109.31912102   120.03871470
 H     84  62  58     2.080080829219   111.41920012   299.54897900
 H     84  62  58     2.078524123891   112.11235094    60.20608939
 H     84  62  58     2.080572159645   110.67686333   179.91260251

---------------------
BASIS SET INFORMATION
---------------------
There are 4 groups of distinct atoms

 Group   1 Type Au  : 7s6p5d1f contracted to 6s3p2d1f pattern {211111/411/41/1}
 Group   2 Type C   : 7s4p1d contracted to 3s2p1d pattern {511/31/1}
 Group   3 Type H   : 4s1p contracted to 2s1p pattern {31/1}
 Group   4 Type N   : 7s4p1d contracted to 3s2p1d pattern {511/31/1}

Atom   0Au   basis set group =>   1
Atom   1C    basis set group =>   2
Atom   2C    basis set group =>   2
Atom   3C    basis set group =>   2
Atom   4C    basis set group =>   2
Atom   5C    basis set group =>   2
Atom   6C    basis set group =>   2
Atom   7C    basis set group =>   2
Atom   8C    basis set group =>   2
Atom   9C    basis set group =>   2
Atom  10C    basis set group =>   2
Atom  11C    basis set group =>   2
Atom  12H    basis set group =>   3
Atom  13H    basis set group =>   3
Atom  14H    basis set group =>   3
Atom  15H    basis set group =>   3
Atom  16H    basis set group =>   3
Atom  17H    basis set group =>   3
Atom  18H    basis set group =>   3
Atom  19C    basis set group =>   2
Atom  20C    basis set group =>   2
Atom  21C    basis set group =>   2
Atom  22C    basis set group =>   2
Atom  23H    basis set group =>   3
Atom  24C    basis set group =>   2
Atom  25C    basis set group =>   2
Atom  26H    basis set group =>   3
Atom  27H    basis set group =>   3
Atom  28H    basis set group =>   3
Atom  29N    basis set group =>   4
Atom  30C    basis set group =>   2
Atom  31C    basis set group =>   2
Atom  32C    basis set group =>   2
Atom  33C    basis set group =>   2
Atom  34C    basis set group =>   2
Atom  35C    basis set group =>   2
Atom  36H    basis set group =>   3
Atom  37C    basis set group =>   2
Atom  38H    basis set group =>   3
Atom  39C    basis set group =>   2
Atom  40H    basis set group =>   3
Atom  41H    basis set group =>   3
Atom  42C    basis set group =>   2
Atom  43C    basis set group =>   2
Atom  44C    basis set group =>   2
Atom  45C    basis set group =>   2
Atom  46C    basis set group =>   2
Atom  47C    basis set group =>   2
Atom  48C    basis set group =>   2
Atom  49H    basis set group =>   3
Atom  50C    basis set group =>   2
Atom  51C    basis set group =>   2
Atom  52H    basis set group =>   3
Atom  53C    basis set group =>   2
Atom  54C    basis set group =>   2
Atom  55H    basis set group =>   3
Atom  56H    basis set group =>   3
Atom  57C    basis set group =>   2
Atom  58H    basis set group =>   3
Atom  59H    basis set group =>   3
Atom  60N    basis set group =>   4
Atom  61C    basis set group =>   2
Atom  62C    basis set group =>   2
Atom  63C    basis set group =>   2
Atom  64H    basis set group =>   3
Atom  65H    basis set group =>   3
Atom  66H    basis set group =>   3
Atom  67C    basis set group =>   2
Atom  68H    basis set group =>   3
Atom  69H    basis set group =>   3
Atom  70H    basis set group =>   3
Atom  71C    basis set group =>   2
Atom  72H    basis set group =>   3
Atom  73H    basis set group =>   3
Atom  74H    basis set group =>   3
Atom  75C    basis set group =>   2
Atom  76H    basis set group =>   3
Atom  77H    basis set group =>   3
Atom  78H    basis set group =>   3
Atom  79C    basis set group =>   2
Atom  80H    basis set group =>   3
Atom  81H    basis set group =>   3
Atom  82H    basis set group =>   3
Atom  83C    basis set group =>   2
Atom  84H    basis set group =>   3
Atom  85H    basis set group =>   3
Atom  86H    basis set group =>   3
---------------------------------
AUXILIARY/J BASIS SET INFORMATION
---------------------------------
There are 4 groups of distinct atoms

 Group   1 Type Au  : 11s5p5d3f3g contracted to 8s5p5d2f3g pattern {41111111/11111/11111/21/111}
 Group   2 Type C   : 12s5p4d2f1g contracted to 6s4p3d1f1g pattern {711111/2111/211/2/1}
 Group   3 Type H   : 5s2p1d contracted to 3s1p1d pattern {311/2/1}
 Group   4 Type N   : 12s5p4d2f1g contracted to 6s4p3d1f1g pattern {711111/2111/211/2/1}

Atom   0Au   basis set group =>   1
Atom   1C    basis set group =>   2
Atom   2C    basis set group =>   2
Atom   3C    basis set group =>   2
Atom   4C    basis set group =>   2
Atom   5C    basis set group =>   2
Atom   6C    basis set group =>   2
Atom   7C    basis set group =>   2
Atom   8C    basis set group =>   2
Atom   9C    basis set group =>   2
Atom  10C    basis set group =>   2
Atom  11C    basis set group =>   2
Atom  12H    basis set group =>   3
Atom  13H    basis set group =>   3
Atom  14H    basis set group =>   3
Atom  15H    basis set group =>   3
Atom  16H    basis set group =>   3
Atom  17H    basis set group =>   3
Atom  18H    basis set group =>   3
Atom  19C    basis set group =>   2
Atom  20C    basis set group =>   2
Atom  21C    basis set group =>   2
Atom  22C    basis set group =>   2
Atom  23H    basis set group =>   3
Atom  24C    basis set group =>   2
Atom  25C    basis set group =>   2
Atom  26H    basis set group =>   3
Atom  27H    basis set group =>   3
Atom  28H    basis set group =>   3
Atom  29N    basis set group =>   4
Atom  30C    basis set group =>   2
Atom  31C    basis set group =>   2
Atom  32C    basis set group =>   2
Atom  33C    basis set group =>   2
Atom  34C    basis set group =>   2
Atom  35C    basis set group =>   2
Atom  36H    basis set group =>   3
Atom  37C    basis set group =>   2
Atom  38H    basis set group =>   3
Atom  39C    basis set group =>   2
Atom  40H    basis set group =>   3
Atom  41H    basis set group =>   3
Atom  42C    basis set group =>   2
Atom  43C    basis set group =>   2
Atom  44C    basis set group =>   2
Atom  45C    basis set group =>   2
Atom  46C    basis set group =>   2
Atom  47C    basis set group =>   2
Atom  48C    basis set group =>   2
Atom  49H    basis set group =>   3
Atom  50C    basis set group =>   2
Atom  51C    basis set group =>   2
Atom  52H    basis set group =>   3
Atom  53C    basis set group =>   2
Atom  54C    basis set group =>   2
Atom  55H    basis set group =>   3
Atom  56H    basis set group =>   3
Atom  57C    basis set group =>   2
Atom  58H    basis set group =>   3
Atom  59H    basis set group =>   3
Atom  60N    basis set group =>   4
Atom  61C    basis set group =>   2
Atom  62C    basis set group =>   2
Atom  63C    basis set group =>   2
Atom  64H    basis set group =>   3
Atom  65H    basis set group =>   3
Atom  66H    basis set group =>   3
Atom  67C    basis set group =>   2
Atom  68H    basis set group =>   3
Atom  69H    basis set group =>   3
Atom  70H    basis set group =>   3
Atom  71C    basis set group =>   2
Atom  72H    basis set group =>   3
Atom  73H    basis set group =>   3
Atom  74H    basis set group =>   3
Atom  75C    basis set group =>   2
Atom  76H    basis set group =>   3
Atom  77H    basis set group =>   3
Atom  78H    basis set group =>   3
Atom  79C    basis set group =>   2
Atom  80H    basis set group =>   3
Atom  81H    basis set group =>   3
Atom  82H    basis set group =>   3
Atom  83C    basis set group =>   2
Atom  84H    basis set group =>   3
Atom  85H    basis set group =>   3
Atom  86H    basis set group =>   3
---------------------------------
AUXILIARY/C BASIS SET INFORMATION
---------------------------------
There are 4 groups of distinct atoms

 Group   1 Type Au  : 8s8p7d5f3g1h contracted to 8s8p7d5f3g1h pattern {11111111/11111111/1111111/11111/111/1}
 Group   2 Type C   : 8s6p5d3f contracted to 6s5p4d1f pattern {311111/21111/2111/3}
 Group   3 Type H   : 4s3p2d contracted to 3s2p1d pattern {211/21/2}
 Group   4 Type N   : 8s6p5d3f contracted to 6s5p4d1f pattern {311111/21111/2111/3}

Atom   0Au   basis set group =>   1
Atom   1C    basis set group =>   2
Atom   2C    basis set group =>   2
Atom   3C    basis set group =>   2
Atom   4C    basis set group =>   2
Atom   5C    basis set group =>   2
Atom   6C    basis set group =>   2
Atom   7C    basis set group =>   2
Atom   8C    basis set group =>   2
Atom   9C    basis set group =>   2
Atom  10C    basis set group =>   2
Atom  11C    basis set group =>   2
Atom  12H    basis set group =>   3
Atom  13H    basis set group =>   3
Atom  14H    basis set group =>   3
Atom  15H    basis set group =>   3
Atom  16H    basis set group =>   3
Atom  17H    basis set group =>   3
Atom  18H    basis set group =>   3
Atom  19C    basis set group =>   2
Atom  20C    basis set group =>   2
Atom  21C    basis set group =>   2
Atom  22C    basis set group =>   2
Atom  23H    basis set group =>   3
Atom  24C    basis set group =>   2
Atom  25C    basis set group =>   2
Atom  26H    basis set group =>   3
Atom  27H    basis set group =>   3
Atom  28H    basis set group =>   3
Atom  29N    basis set group =>   4
Atom  30C    basis set group =>   2
Atom  31C    basis set group =>   2
Atom  32C    basis set group =>   2
Atom  33C    basis set group =>   2
Atom  34C    basis set group =>   2
Atom  35C    basis set group =>   2
Atom  36H    basis set group =>   3
Atom  37C    basis set group =>   2
Atom  38H    basis set group =>   3
Atom  39C    basis set group =>   2
Atom  40H    basis set group =>   3
Atom  41H    basis set group =>   3
Atom  42C    basis set group =>   2
Atom  43C    basis set group =>   2
Atom  44C    basis set group =>   2
Atom  45C    basis set group =>   2
Atom  46C    basis set group =>   2
Atom  47C    basis set group =>   2
Atom  48C    basis set group =>   2
Atom  49H    basis set group =>   3
Atom  50C    basis set group =>   2
Atom  51C    basis set group =>   2
Atom  52H    basis set group =>   3
Atom  53C    basis set group =>   2
Atom  54C    basis set group =>   2
Atom  55H    basis set group =>   3
Atom  56H    basis set group =>   3
Atom  57C    basis set group =>   2
Atom  58H    basis set group =>   3
Atom  59H    basis set group =>   3
Atom  60N    basis set group =>   4
Atom  61C    basis set group =>   2
Atom  62C    basis set group =>   2
Atom  63C    basis set group =>   2
Atom  64H    basis set group =>   3
Atom  65H    basis set group =>   3
Atom  66H    basis set group =>   3
Atom  67C    basis set group =>   2
Atom  68H    basis set group =>   3
Atom  69H    basis set group =>   3
Atom  70H    basis set group =>   3
Atom  71C    basis set group =>   2
Atom  72H    basis set group =>   3
Atom  73H    basis set group =>   3
Atom  74H    basis set group =>   3
Atom  75C    basis set group =>   2
Atom  76H    basis set group =>   3
Atom  77H    basis set group =>   3
Atom  78H    basis set group =>   3
Atom  79C    basis set group =>   2
Atom  80H    basis set group =>   3
Atom  81H    basis set group =>   3
Atom  82H    basis set group =>   3
Atom  83C    basis set group =>   2
Atom  84H    basis set group =>   3
Atom  85H    basis set group =>   3
Atom  86H    basis set group =>   3
-------------------------
ECP PARAMETER INFORMATION
-------------------------

 Group 1, Type Au ECP Def2-ECP (replacing 60 core electrons, lmax=3)

Atom   0Au   ECP group =>   1



           ************************************************************
           *        Program running with 8 parallel MPI-processes     *
           *              working on a common directory               *
           ************************************************************
------------------------------------------------------------------------------
                           ORCA GTO INTEGRAL CALCULATION
                           -- RI-GTO INTEGRALS CHOSEN --
------------------------------------------------------------------------------
------------------------------------------------------------------------------
                   ___                                                        
                  /   \      - P O W E R E D   B Y -                         
                 /     \                                                     
                 |  |  |   _    _      __       _____    __    __             
                 |  |  |  | |  | |    /  \     |  _  \  |  |  /  |          
                  \  \/   | |  | |   /    \    | | | |  |  | /  /          
                 / \  \   | |__| |  /  /\  \   | |_| |  |  |/  /          
                |  |  |   |  __  | /  /__\  \  |    /   |      \           
                |  |  |   | |  | | |   __   |  |    \   |  |\   \          
                \     /   | |  | | |  |  |  |  | |\  \  |  | \   \       
                 \___/    |_|  |_| |__|  |__|  |_| \__\ |__|  \__/        
                                                                              
                      - O R C A' S   B I G   F R I E N D -                    
                                      &                                       
                       - I N T E G R A L  F E E D E R -                       
                                                                              
 v1 FN, 2020, v2 2021                                                         
------------------------------------------------------------------------------


Reading SHARK input file Au-alkyne_2-full_B2GPPLYP_def2SVP.SHARKINP.tmp ... ok
----------------------
SHARK INTEGRAL PACKAGE
----------------------

Number of atoms                             ...     87
Number of basis functions                   ...    885
Number of shells                            ...    411
Maximum angular momentum                    ...      3
Integral batch strategy                     ... SHARK/LIBINT Hybrid
RI-J (if used) integral strategy            ... SPLIT-RIJ (Revised 2003 algorithm where possible)
Printlevel                                  ...      1
Contraction scheme used                     ... SEGMENTED contraction
Coulomb Range Separation                    ... NOT USED
Exchange Range Separation                   ... NOT USED
Finite Nucleus Model                        ... NOT USED
Auxiliary Coulomb fitting basis             ... AVAILABLE
   # of basis functions in Aux-J            ...   2821
   # of shells in Aux-J                     ...    923
   Maximum angular momentum in Aux-J        ...      4
Auxiliary J/K fitting basis                 ... NOT available
Auxiliary Correlation fitting basis         ... AVAILABLE
   # of basis functions in Aux-C            ...   2942
   # of shells in Aux-C                     ...   1018
   Maximum angular momentum in Aux-C        ...      5
Auxiliary 'external' fitting basis          ... NOT available
Integral threshold                          ...     2.500000e-11
Primitive cut-off                           ...     2.500000e-12
Primitive pair pre-selection threshold      ...     2.500000e-12

Calculating pre-screening integrals         ... done (  0.1 sec) Dimension = 411
Organizing shell pair data                  ... done (  0.1 sec)
Shell pair information
Total number of shell pairs                 ...     84666
Shell pairs after pre-screening             ...     33803
Total number of primitive shell pairs       ...    303772
Primitive shell pairs kept                  ...     74319
          la=0 lb=0:  10434 shell pairs
          la=1 lb=0:  12583 shell pairs
          la=1 lb=1:   3897 shell pairs
          la=2 lb=0:   3946 shell pairs
          la=2 lb=1:   2403 shell pairs
          la=2 lb=2:    373 shell pairs
          la=3 lb=0:     91 shell pairs
          la=3 lb=1:     52 shell pairs
          la=3 lb=2:     23 shell pairs
          la=3 lb=3:      1 shell pairs

Calculating one electron integrals          ... done (  0.1 sec)
Calculating ECP integrals                   ... done (  0.6 sec)
Calculating RI/J V-Matrix + Cholesky decomp.... done (  0.4 sec)
Calculating RI/C V-Matrix + Cholesky decomp.... done (  0.4 sec)
Calculating Nuclear repulsion               ... done (  0.0 sec) ENN=   5371.622718108058 Eh

SHARK setup successfully completed in   1.9 seconds

Maximum memory used throughout the entire GTOINT-calculation: 74.9 MB


           ************************************************************
           *        Program running with 8 parallel MPI-processes     *
           *              working on a common directory               *
           ************************************************************
-------------------------------------------------------------------------------
                                 ORCA SCF
-------------------------------------------------------------------------------

------------
SCF SETTINGS
------------
Hamiltonian:
 Density Functional     Method          .... DFT(GTOs)
 Exchange Functional    Exchange        .... B88
   X-Alpha parameter    XAlpha          ....  0.666667
   Becke's b parameter  XBeta           ....  0.004200
 Correlation Functional Correlation     .... LYP
 LDA part of GGA corr.  LDAOpt          .... VWN-3
 Gradients option       PostSCFGGA      .... off
 Hybrid DFT is turned on
   Fraction HF Exchange ScalHFX         ....  0.650000
   Scaling of DF-GGA-X  ScalDFX         ....  0.350000
   Scaling of DF-GGA-C  ScalDFC         ....  0.640000
   Scaling of DF-LDA-C  ScalLDAC        ....  0.640000
   Perturbative correction              ....  0.360000
   Density functional embedding theory  .... OFF
 RI-approximation to the Coulomb term is turned on
   Number of AuxJ basis functions       .... 2821
   RIJ-COSX (HFX calculated with COS-X)).... on


General Settings:
 Integral files         IntName         .... Au-alkyne_2-full_B2GPPLYP_def2SVP
 Hartree-Fock type      HFTyp           .... RHF
 Total Charge           Charge          ....    0
 Multiplicity           Mult            ....    1
 Number of Electrons    NEL             ....  342
 Basis Dimension        Dim             ....  885
 Nuclear Repulsion      ENuc            ....   5371.6227181081 Eh

Convergence Acceleration:
 DIIS                   CNVDIIS         .... on
   Start iteration      DIISMaxIt       ....    12
   Startup error        DIISStart       ....  0.200000
   # of expansion vecs  DIISMaxEq       ....     5
   Bias factor          DIISBfac        ....   1.050
   Max. coefficient     DIISMaxC        ....  10.000
 Trust-Rad. Augm. Hess. CNVTRAH         .... auto
   Auto Start mean grad. ratio tolernc. ....  1.125000
   Auto Start start iteration           ....    20
   Auto Start num. interpolation iter.  ....    10
   Max. Number of Micro iterations      ....    16
   Max. Number of Macro iterations      .... Maxiter - #DIIS iter
   Number of Davidson start vectors     ....     2
   Converg. threshold I  (grad. norm)   ....   1.000e-05
   Converg. threshold II (energy diff.) ....   1.000e-08
   Grad. Scal. Fac. for Micro threshold ....   0.100
   Minimum threshold for Micro iter.    ....   0.010
   NR start threshold (gradient norm)   ....   0.001
   Initial trust radius                 ....   0.400
   Minimum AH scaling param. (alpha)    ....   1.000
   Maximum AH scaling param. (alpha)    .... 1000.000
   Orbital update algorithm             .... Taylor
   White noise on init. David. guess    .... on
   Maximum white noise                  ....   0.010
   Quad. conv. algorithm                .... NR
 SOSCF                  CNVSOSCF        .... off
 Level Shifting         CNVShift        .... on
   Level shift para.    LevelShift      ....    0.2500
   Turn off err/grad.   ShiftErr        ....    0.0010
 Zerner damping         CNVZerner       .... off
 Static damping         CNVDamp         .... on
   Fraction old density DampFac         ....    0.7000
   Max. Damping (<1)    DampMax         ....    0.9800
   Min. Damping (>=0)   DampMin         ....    0.0000
   Turn off err/grad.   DampErr         ....    0.1000
 Fernandez-Rico         CNVRico         .... off

SCF Procedure:
 Maximum # iterations   MaxIter         ....   125
 SCF integral mode      SCFMode         .... Direct
   Integral package                     .... SHARK and LIBINT hybrid scheme
 Reset frequency        DirectResetFreq ....    20
 Integral Threshold     Thresh          ....  2.500e-11 Eh
 Primitive CutOff       TCut            ....  2.500e-12 Eh

Convergence Tolerance:
 Convergence Check Mode ConvCheckMode   .... Total+1el-Energy
 Convergence forced     ConvForced      .... 1
 Energy Change          TolE            ....  1.000e-08 Eh
 1-El. energy change                    ....  1.000e-05 Eh
 DIIS Error             TolErr          ....  5.000e-07


Diagonalization of the overlap matrix:
Smallest eigenvalue                        ... 2.083e-04
Time for diagonalization                   ...    0.142 sec
Threshold for overlap eigenvalues          ... 1.000e-08
Number of eigenvalues below threshold      ... 0
Time for construction of square roots      ...    0.079 sec
Total time needed                          ...    0.224 sec

Time for model grid setup =    0.947 sec

------------------------------
INITIAL GUESS: MODEL POTENTIAL
------------------------------
Loading Hartree-Fock densities                     ... done
  calling /project/ligandum/orca_504_openmpi411/orca Au-alkyne_2-full_B2GPPLYP_def2SVP_atom79.inp > Au-alkyne_2-full_B2GPPLYP_def2SVP_atom79.out in order to generate an atomic fitting density for atom 0 (Au with ECP) on-the-fly... 
    atom 0 (Au), assumed electronic state with S=2: 1s2 2s2 2p6 3s2 3p6 4s2 3d10 4p6 5s2 4d10 5p6 6s1 4f14 5d10           ... done
Calculating cut-offs                               ... done
Initializing the effective Hamiltonian             ... done
Setting up the integral package (SHARK)            ... done
Starting the Coulomb interaction                   ... done (   0.6 sec)
Reading the grid                                   ... done
Mapping shells                                     ... done
Starting the XC term evaluation                    ... done (   0.2 sec)
  promolecular density results
     # of electrons  =    401.990707998
     EX              =   -623.536796854
     EC              =     -1.915526463
     EX+EC           =   -625.452323317
Transforming the Hamiltonian                       ... done (   0.1 sec)
Diagonalizing the Hamiltonian                      ... done (   0.1 sec)
Back transforming the eigenvectors                 ... done (   0.0 sec)
Now organizing SCF variables                       ... done
                      ------------------
                      INITIAL GUESS DONE (   3.3 sec)
                      ------------------
-------------------
DFT GRID GENERATION
-------------------

General Integration Accuracy     IntAcc      ... 4.388
Radial Grid Type                 RadialGrid  ... OptM3 with GC (2021)
Angular Grid (max. ang.)         AngularGrid ... 4 (Lebedev-302)
Angular grid pruning method      GridPruning ... 4 (adaptive)
Weight generation scheme         WeightScheme... Becke
Basis function cutoff            BFCut       ... 1.0000e-11
Integration weight cutoff        WCut        ... 1.0000e-14
Angular grids for H and He will be reduced by one unit
Partially contracted basis set               ... off
Rotationally invariant grid construction     ... off

Total number of grid points                  ...   413665
Total number of batches                      ...     6506
Average number of points per batch           ...       63
Average number of grid points per atom       ...     4755
Time for grid setup =    3.655 sec

--------------------
COSX GRID GENERATION
--------------------

GRIDX 1
-------
General Integration Accuracy     IntAcc      ... 3.816
Radial Grid Type                 RadialGrid  ... OptM3 with GC (2021)
Angular Grid (max. ang.)         AngularGrid ... 1 (Lebedev-50)
Angular grid pruning method      GridPruning ... 4 (adaptive)
Weight generation scheme         WeightScheme... Becke
Basis function cutoff            BFCut       ... 1.0000e-11
Integration weight cutoff        WCut        ... 1.0000e-14
Angular grids for H and He will be reduced by one unit
Partially contracted basis set               ... on
Rotationally invariant grid construction     ... off

Total number of grid points                  ...    52245
Total number of batches                      ...      858
Average number of points per batch           ...       60
Average number of grid points per atom       ...      601
UseSFitting                                  ... on

GRIDX 2
-------
General Integration Accuracy     IntAcc      ... 4.020
Radial Grid Type                 RadialGrid  ... OptM3 with GC (2021)
Angular Grid (max. ang.)         AngularGrid ... 2 (Lebedev-110)
Angular grid pruning method      GridPruning ... 4 (adaptive)
Weight generation scheme         WeightScheme... Becke
Basis function cutoff            BFCut       ... 1.0000e-11
Integration weight cutoff        WCut        ... 1.0000e-14
Angular grids for H and He will be reduced by one unit
Partially contracted basis set               ... on
Rotationally invariant grid construction     ... off

Total number of grid points                  ...   113118
Total number of batches                      ...     1811
Average number of points per batch           ...       62
Average number of grid points per atom       ...     1300
UseSFitting                                  ... on

GRIDX 3
-------
General Integration Accuracy     IntAcc      ... 4.338
Radial Grid Type                 RadialGrid  ... OptM3 with GC (2021)
Angular Grid (max. ang.)         AngularGrid ... 3 (Lebedev-194)
Angular grid pruning method      GridPruning ... 4 (adaptive)
Weight generation scheme         WeightScheme... Becke
Basis function cutoff            BFCut       ... 1.0000e-11
Integration weight cutoff        WCut        ... 1.0000e-14
Angular grids for H and He will be reduced by one unit
Partially contracted basis set               ... on
Rotationally invariant grid construction     ... off

Total number of grid points                  ...   245289
Total number of batches                      ...     3876
Average number of points per batch           ...       63
Average number of grid points per atom       ...     2819
UseSFitting                                  ... on

Time for X-Grid setup             =    3.738 sec


--------------------
CPCM SOLVATION MODEL
--------------------
CPCM parameters:
  Epsilon                                         ...      35.6880
  Refrac                                          ...       1.3442
  Rsolv                                           ...       1.3000
  Surface type                                    ... GAUSSIAN VDW
  Epsilon function type                           ...         CPCM
Solvent:                                     ... ACETONITRILE
SMD-CDS solvent descriptors:
  Soln                                       ...    1.3442
  Soln25                                     ...    1.3416
  Sola                                       ...    0.0700
  Solb                                       ...    0.3200
  Solg                                       ...   41.2500
  Solc                                       ...    0.0000
  Solh                                       ...    0.0000
Radii:
 Radius for Au used is    4.1007 Bohr (=   2.1700 Ang.)
 Radius for C  used is    3.4960 Bohr (=   1.8500 Ang.)
 Radius for H  used is    2.2677 Bohr (=   1.2000 Ang.)
 Radius for N  used is    3.5716 Bohr (=   1.8900 Ang.)
Calculating surface                               ...        done! (  0.0s)
GEPOL surface points                              ...         4963
GEPOL Volume                                      ...    4500.8468
GEPOL Surface-area                                ...    2418.3788
Calculating surface distance matrix               ...        done! (  0.1s)
Performing Cholesky decomposition & store         ...        done! (  0.7s)
Overall time for CPCM initialization              ...                 0.9s
--------------
SCF ITERATIONS
--------------
ITER       Energy         Delta-E        Max-DP      RMS-DP      [F,P]     Damp
               ***  Starting incremental Fock matrix formation  ***
  0  -1975.2099986873   0.000000000000 0.18332965  0.00161201  0.4773311 0.7000
  1  -1975.7685160126  -0.558517325305 0.12510644  0.00120475  0.3517713 0.7000
  2  -1976.0653131605  -0.296797147900 0.12605023  0.00080807  0.2564629 0.7000
                               ***Turning on DIIS***
  3  -1976.2431822530  -0.177869092467 0.10657020  0.00055604  0.1840321 0.7000
  4  -1976.3633481443  -0.120165891360 0.08646122  0.00039950  0.1303215 0.7000
  5  -1976.4474170474  -0.084068903047 0.19893949  0.00096162  0.0908474 0.0000
  6  -1976.6447155824  -0.197298534999 0.00990963  0.00005785  0.0052870 0.0000
  7  -1976.6450426230  -0.000327040564 0.00774117  0.00002738  0.0034998 0.0000
  8  -1976.6451236085  -0.000080985524 0.00194647  0.00001220  0.0013755 0.0000
  9  -1976.6451471410  -0.000023532539 0.00223990  0.00000855  0.0007265 0.0000
               *** Restarting incremental Fock matrix formation ***
                                   *** Resetting DIIS ***
 10  -1976.6470503386  -0.001903197554 0.00224353  0.00003157  0.0002127 0.0000
 11  -1976.6470549740  -0.000004635385 0.00040743  0.00000376  0.0001748 0.0000
 12  -1976.6470552933  -0.000000319301 0.00021177  0.00000182  0.0001343 0.0000
 13  -1976.6470554925  -0.000000199263 0.00006166  0.00000041  0.0000429 0.0000
 14  -1976.6470555209  -0.000000028357 0.00002262  0.00000022  0.0000288 0.0000
 15  -1976.6470555587  -0.000000037846 0.00001566  0.00000011  0.0000119 0.0000
 16  -1976.6470555956  -0.000000036912 0.00000502  0.00000006  0.0000056 0.0000
 17  -1976.6470555706   0.000000024989 0.00000392  0.00000003  0.0000013 0.0000
                            ***DIIS convergence achieved***

               *****************************************************
               *                     SUCCESS                       *
               *           SCF CONVERGED AFTER  18 CYCLES          *
               *****************************************************

Old exchange energy                            =   -176.754988808 Eh
New exchange energy                            =   -176.755000927 Eh
Exchange energy change after final integration =     -0.000012120 Eh
Total energy after final integration           =  -1976.647067646 Eh
Final COS-X integration done in                =    30.790 sec

SMD CDS free energy correction energy :                -9.52261     Kcal/mol
Total Energy after SMD CDS correction =             -1976.662242886 Eh

----------------
TOTAL SCF ENERGY
----------------

Total Energy       :        -1976.66224289 Eh          -53787.71414 eV

Components:
Nuclear Repulsion  :         5371.62271811 Eh          146169.28526 eV
Electronic Energy  :        -7348.28496099 Eh         -199956.99941 eV
One Electron Energy:       -13424.50194533 Eh         -365299.26939 eV
Two Electron Energy:         6076.21698433 Eh          165342.26998 eV
Max COSX asymmetry :            0.00004284 Eh               0.00117 eV
CPCM Dielectric    :           -0.04562995 Eh              -1.24165 eV
SMD CDS (Gcds)     :           -0.01517524 Eh              -0.41294 eV

Virial components:
Potential Energy   :        -3847.02019177 Eh         -104682.74139 eV
Kinetic Energy     :         1870.35794889 Eh           50895.02724 eV
Virial Ratio       :            2.05683634


DFT components:
N(Alpha)           :      170.999788172944 electrons
N(Beta)            :      170.999788172944 electrons
N(Total)           :      341.999576345889 electrons
E(X)               :      -95.361819094902 Eh       
E(C)               :       -7.415378099085 Eh       
E(XC)              :     -102.777197193988 Eh       
DFET-embed. en.    :        0.000000000000 Eh       
CPCM Solvation Model Properties:
Surface-charge          :           -0.09123930
Charge-correction       :           -0.00028101 Eh              -0.00765 eV
Free-energy (cav+disp)  :           -0.01517524 Eh              -0.41294 eV

---------------
SCF CONVERGENCE
---------------

  Last Energy change         ...    4.4005e-08  Tolerance :   1.0000e-08
  Last MAX-Density change    ...    0.0000e+00  Tolerance :   1.0000e-07
  Last RMS-Density change    ...    0.0000e+00  Tolerance :   5.0000e-09
  Last DIIS Error            ...    4.4452e-07  Tolerance :   5.0000e-07

             **** THE GBW FILE WAS UPDATED (Au-alkyne_2-full_B2GPPLYP_def2SVP.gbw) ****
             **** DENSITY Au-alkyne_2-full_B2GPPLYP_def2SVP.scfp WAS UPDATED ****
             **** ENERGY FILE WAS UPDATED (Au-alkyne_2-full_B2GPPLYP_def2SVP.en.tmp) ****
             **** THE GBW FILE WAS UPDATED (Au-alkyne_2-full_B2GPPLYP_def2SVP.gbw) ****
             **** DENSITY Au-alkyne_2-full_B2GPPLYP_def2SVP.scfp WAS UPDATED ****
----------------
ORBITAL ENERGIES
----------------

  NO   OCC          E(Eh)            E(eV) 
   0   2.0000     -15.097838      -410.8331 
   1   2.0000     -15.079666      -410.3386 
   2   2.0000     -10.864324      -295.6333 
   3   2.0000     -10.864311      -295.6329 
   4   2.0000     -10.840490      -294.9847 
   5   2.0000     -10.825205      -294.5688 
   6   2.0000     -10.825180      -294.5681 
   7   2.0000     -10.823685      -294.5274 
   8   2.0000     -10.815295      -294.2991 
   9   2.0000     -10.806043      -294.0474 
  10   2.0000     -10.806037      -294.0472 
  11   2.0000     -10.802946      -293.9631 
  12   2.0000     -10.802929      -293.9626 
  13   2.0000     -10.798732      -293.8484 
  14   2.0000     -10.798713      -293.8479 
  15   2.0000     -10.796107      -293.7770 
  16   2.0000     -10.796103      -293.7769 
  17   2.0000     -10.794846      -293.7427 
  18   2.0000     -10.794832      -293.7423 
  19   2.0000     -10.792969      -293.6916 
  20   2.0000     -10.792925      -293.6904 
  21   2.0000     -10.792195      -293.6706 
  22   2.0000     -10.792194      -293.6705 
  23   2.0000     -10.788418      -293.5678 
  24   2.0000     -10.788417      -293.5677 
  25   2.0000     -10.786568      -293.5174 
  26   2.0000     -10.786544      -293.5168 
  27   2.0000     -10.786176      -293.5068 
  28   2.0000     -10.786169      -293.5066 
  29   2.0000     -10.786146      -293.5060 
  30   2.0000     -10.786144      -293.5059 
  31   2.0000     -10.785650      -293.4924 
  32   2.0000     -10.785252      -293.4816 
  33   2.0000     -10.784676      -293.4659 
  34   2.0000     -10.784352      -293.4571 
  35   2.0000     -10.784306      -293.4559 
  36   2.0000     -10.783532      -293.4348 
  37   2.0000     -10.783529      -293.4347 
  38   2.0000     -10.782660      -293.4111 
  39   2.0000     -10.782658      -293.4110 
  40   2.0000     -10.778138      -293.2880 
  41   2.0000     -10.763137      -292.8799 
  42   2.0000     -10.763130      -292.8797 
  43   2.0000     -10.763075      -292.8782 
  44   2.0000     -10.763068      -292.8780 
  45   2.0000     -10.761771      -292.8427 
  46   2.0000     -10.761767      -292.8426 
  47   2.0000      -4.580922      -124.6532 
  48   2.0000      -2.677821       -72.8672 
  49   2.0000      -2.669237       -72.6336 
  50   2.0000      -2.652522       -72.1788 
  51   2.0000      -1.172026       -31.8925 
  52   2.0000      -1.168384       -31.7934 
  53   2.0000      -1.040978       -28.3265 
  54   2.0000      -1.030729       -28.0476 
  55   2.0000      -1.018037       -27.7022 
  56   2.0000      -1.017443       -27.6860 
  57   2.0000      -1.014425       -27.6039 
  58   2.0000      -0.978567       -26.6282 
  59   2.0000      -0.974834       -26.5266 
  60   2.0000      -0.967579       -26.3292 
  61   2.0000      -0.965471       -26.2718 
  62   2.0000      -0.936331       -25.4789 
  63   2.0000      -0.918519       -24.9942 
  64   2.0000      -0.905894       -24.6506 
  65   2.0000      -0.904564       -24.6144 
  66   2.0000      -0.889246       -24.1976 
  67   2.0000      -0.889195       -24.1962 
  68   2.0000      -0.885753       -24.1026 
  69   2.0000      -0.877621       -23.8813 
  70   2.0000      -0.872667       -23.7465 
  71   2.0000      -0.858672       -23.3656 
  72   2.0000      -0.845854       -23.0169 
  73   2.0000      -0.814448       -22.1623 
  74   2.0000      -0.809761       -22.0347 
  75   2.0000      -0.809759       -22.0347 
  76   2.0000      -0.809253       -22.0209 
  77   2.0000      -0.799230       -21.7481 
  78   2.0000      -0.785417       -21.3723 
  79   2.0000      -0.778949       -21.1963 
  80   2.0000      -0.751007       -20.4359 
  81   2.0000      -0.745955       -20.2985 
  82   2.0000      -0.739759       -20.1299 
  83   2.0000      -0.730091       -19.8668 
  84   2.0000      -0.719800       -19.5867 
  85   2.0000      -0.711720       -19.3669 
  86   2.0000      -0.706897       -19.2356 
  87   2.0000      -0.702304       -19.1107 
  88   2.0000      -0.692198       -18.8357 
  89   2.0000      -0.667290       -18.1579 
  90   2.0000      -0.663076       -18.0432 
  91   2.0000      -0.650866       -17.7110 
  92   2.0000      -0.646930       -17.6039 
  93   2.0000      -0.640184       -17.4203 
  94   2.0000      -0.623571       -16.9682 
  95   2.0000      -0.621083       -16.9005 
  96   2.0000      -0.614814       -16.7300 
  97   2.0000      -0.611458       -16.6386 
  98   2.0000      -0.588200       -16.0057 
  99   2.0000      -0.584472       -15.9043 
 100   2.0000      -0.581760       -15.8305 
 101   2.0000      -0.579756       -15.7760 
 102   2.0000      -0.574994       -15.6464 
 103   2.0000      -0.561141       -15.2694 
 104   2.0000      -0.556659       -15.1475 
 105   2.0000      -0.556506       -15.1433 
 106   2.0000      -0.551709       -15.0128 
 107   2.0000      -0.548374       -14.9220 
 108   2.0000      -0.547364       -14.8945 
 109   2.0000      -0.543829       -14.7983 
 110   2.0000      -0.533405       -14.5147 
 111   2.0000      -0.533264       -14.5109 
 112   2.0000      -0.530187       -14.4271 
 113   2.0000      -0.530035       -14.4230 
 114   2.0000      -0.529335       -14.4039 
 115   2.0000      -0.526425       -14.3247 
 116   2.0000      -0.524917       -14.2837 
 117   2.0000      -0.519920       -14.1477 
 118   2.0000      -0.518874       -14.1193 
 119   2.0000      -0.516882       -14.0651 
 120   2.0000      -0.511663       -13.9231 
 121   2.0000      -0.505524       -13.7560 
 122   2.0000      -0.505515       -13.7558 
 123   2.0000      -0.503133       -13.6909 
 124   2.0000      -0.500229       -13.6119 
 125   2.0000      -0.496818       -13.5191 
 126   2.0000      -0.487334       -13.2610 
 127   2.0000      -0.486241       -13.2313 
 128   2.0000      -0.480625       -13.0785 
 129   2.0000      -0.479764       -13.0551 
 130   2.0000      -0.474099       -12.9009 
 131   2.0000      -0.472669       -12.8620 
 132   2.0000      -0.468219       -12.7409 
 133   2.0000      -0.466503       -12.6942 
 134   2.0000      -0.460475       -12.5302 
 135   2.0000      -0.455133       -12.3848 
 136   2.0000      -0.455105       -12.3840 
 137   2.0000      -0.449739       -12.2380 
 138   2.0000      -0.447034       -12.1644 
 139   2.0000      -0.445212       -12.1148 
 140   2.0000      -0.441568       -12.0157 
 141   2.0000      -0.441400       -12.0111 
 142   2.0000      -0.440804       -11.9949 
 143   2.0000      -0.439743       -11.9660 
 144   2.0000      -0.432543       -11.7701 
 145   2.0000      -0.431977       -11.7547 
 146   2.0000      -0.430788       -11.7223 
 147   2.0000      -0.418293       -11.3823 
 148   2.0000      -0.416324       -11.3287 
 149   2.0000      -0.409873       -11.1532 
 150   2.0000      -0.403583       -10.9821 
 151   2.0000      -0.402778       -10.9602 
 152   2.0000      -0.401605       -10.9282 
 153   2.0000      -0.398872       -10.8539 
 154   2.0000      -0.395011       -10.7488 
 155   2.0000      -0.390982       -10.6392 
 156   2.0000      -0.377158       -10.2630 
 157   2.0000      -0.374157       -10.1813 
 158   2.0000      -0.367084        -9.9889 
 159   2.0000      -0.343156        -9.3377 
 160   2.0000      -0.338174        -9.2022 
 161   2.0000      -0.318597        -8.6695 
 162   2.0000      -0.314591        -8.5605 
 163   2.0000      -0.308663        -8.3991 
 164   2.0000      -0.306542        -8.3414 
 165   2.0000      -0.306301        -8.3349 
 166   2.0000      -0.302265        -8.2250 
 167   2.0000      -0.283203        -7.7064 
 168   2.0000      -0.272216        -7.4074 
 169   2.0000      -0.259115        -7.0509 
 170   2.0000      -0.242900        -6.6096 
[...]
   170a -> 182a  :     0.022140 

STATE 36:  E=   0.191453 au      5.210 eV    42019.0 cm**-1 <S**2> =   0.000000
   169a -> 172a  :     0.994871 

STATE 37:  E=   0.225829 au      6.145 eV    49563.7 cm**-1 <S**2> =   0.000000
   134a -> 175a  :     0.048700 
   143a -> 175a  :     0.021458 
   149a -> 175a  :     0.304843 
   160a -> 171a  :     0.119435 
   160a -> 173a  :     0.014351 
   162a -> 176a  :     0.010759 
   164a -> 176a  :     0.065356 
   166a -> 172a  :     0.027480 
   167a -> 171a  :     0.035737 
   167a -> 173a  :     0.024270 
   167a -> 176a  :     0.010877 
   167a -> 190a  :     0.012443 
   167a -> 191a  :     0.033744 
   168a -> 178a  :     0.026676 
   170a -> 182a  :     0.017420 
   170a -> 191a  :     0.012980 

STATE 38:  E=   0.227629 au      6.194 eV    49958.8 cm**-1 <S**2> =   0.000000
   134a -> 175a  :     0.036488 
   143a -> 175a  :     0.016785 
   149a -> 175a  :     0.223179 
   161a -> 177a  :     0.089003 
   162a -> 176a  :     0.010084 
   163a -> 171a  :     0.020509 
   163a -> 173a  :     0.011962 
   163a -> 176a  :     0.050252 
   164a -> 173a  :     0.013696 
   164a -> 176a  :     0.027098 
   166a -> 172a  :     0.013139 
   167a -> 171a  :     0.055049 
   167a -> 173a  :     0.024960 
   167a -> 176a  :     0.018823 
   167a -> 180a  :     0.012973 
   167a -> 181a  :     0.010241 
   167a -> 182a  :     0.016304 
   167a -> 190a  :     0.014990 
   167a -> 191a  :     0.049601 
   168a -> 178a  :     0.026806 
   170a -> 182a  :     0.023932 
   170a -> 191a  :     0.017993 

STATE 39:  E=   0.224286 au      6.103 eV    49225.1 cm**-1 <S**2> =   0.000000
   149a -> 175a  :     0.044414 
   156a -> 171a  :     0.052742 
   156a -> 173a  :     0.012256 
   157a -> 172a  :     0.039406 
   158a -> 171a  :     0.048895 
   158a -> 173a  :     0.010913 
   160a -> 171a  :     0.084769 
   160a -> 173a  :     0.012163 
   160a -> 176a  :     0.062588 
   161a -> 177a  :     0.033118 
   162a -> 176a  :     0.025523 
   163a -> 173a  :     0.016482 
   163a -> 176a  :     0.073475 
   163a -> 180a  :     0.031545 
   164a -> 171a  :     0.040551 
   164a -> 173a  :     0.017916 
   164a -> 176a  :     0.019320 
   164a -> 182a  :     0.014607 
   166a -> 172a  :     0.016257 
   166a -> 178a  :     0.062278 
   167a -> 171a  :     0.010144 
   167a -> 173a  :     0.011338 
   168a -> 178a  :     0.052456 
   168a -> 185a  :     0.026633 

STATE 40:  E=   0.233430 au      6.352 eV    51232.0 cm**-1 <S**2> =   0.000000
   134a -> 175a  :     0.015978 
   149a -> 175a  :     0.088181 
   158a -> 173a  :     0.032674 
   161a -> 177a  :     0.348228 
   162a -> 171a  :     0.010239 
   162a -> 176a  :     0.045540 
   163a -> 176a  :     0.013723 
   164a -> 176a  :     0.046775 
   166a -> 172a  :     0.051754 
   167a -> 174a  :     0.014629 
   168a -> 178a  :     0.096927 


-------------------------
TD-DFT-EXCITATION SPECTRA
-------------------------

Center of mass = ( -0.7146, -0.0002, -0.0012)
Calculating the Dipole integrals                  ... done
Transforming integrals                            ... done
Calculating the Linear Momentum integrals         ... done
Transforming integrals                            ... done
Calculating angular momentum integrals            ... done
Transforming integrals                            ... done

-----------------------------------------------------------------------------
         ABSORPTION SPECTRUM VIA TRANSITION ELECTRIC DIPOLE MOMENTS
-----------------------------------------------------------------------------
State   Energy    Wavelength  fosc         T2        TX        TY        TZ  
        (cm-1)      (nm)                 (au**2)    (au)      (au)      (au) 
-----------------------------------------------------------------------------
   1   29081.3    343.9   0.103778694   1.17482   0.00014  -1.08388   0.00562
   2   31446.9    318.0   0.767661793   8.03650   2.83487   0.00060   0.00142
   3   31878.8    313.7   0.097702656   1.00897  -1.00446  -0.00326  -0.00389
   4   36550.3    273.6   0.352976756   3.17929   1.78301  -0.00046  -0.01276
   5   32898.4    304.0   0.259083092   2.59263   1.61012   0.01197   0.00178
   6   37861.3    264.1   0.316063212   2.74824   0.00449  -1.65659  -0.06277
   7   35106.7    284.8   0.363587670   3.40953   0.00664  -1.84648  -0.00330
   8   36072.7    277.2   0.000062570   0.00057  -0.02274  -0.00644  -0.00350
   9   36982.9    270.4   0.158228783   1.40851  -0.00717   1.18564   0.05209
  10   35139.6    284.6   0.013976301   0.13094  -0.36119   0.01787  -0.01265
  11   36966.4    270.5   0.007584870   0.06755  -0.02172  -0.19428   0.17127
  12   38222.7    261.6   0.000074230   0.00064  -0.02444  -0.00648  -0.00027
  13   40433.0    247.3   0.001661565   0.01353  -0.11560  -0.01263  -0.00218
  14   34978.5    285.9   0.001329837   0.01252  -0.00014  -0.06677   0.08976
  15   38388.4    260.5   0.009839290   0.08438   0.29047  -0.00160  -0.00134
  16   39701.3    251.9   0.159001629   1.31848   0.00044  -1.14598  -0.07219
  17   40664.2    245.9   0.097274331   0.78752   0.88738  -0.00881  -0.00142
  18   41348.5    241.8   0.001427468   0.01137   0.00851  -0.09265  -0.05205
  19   42461.9    235.5   0.259084229   2.00871   0.00482   1.41595  -0.06132
  20   38720.5    258.3   0.264835499   2.25170  -0.00018  -1.49728  -0.09934
  21   41428.0    241.4   0.845852999   6.72166  -0.00109  -2.59260   0.00839
  22   43263.0    231.1   0.014189620   0.10798   0.30809  -0.11416  -0.00518
  23   38068.0    262.7   0.068829696   0.59524   0.04965   0.76893   0.03898
  24   41794.3    239.3   0.826542991   6.51064   0.00239  -2.54518  -0.18078
  25   43812.4    228.2   0.019583812   0.14716  -0.00045  -0.37737   0.06889
  26   44435.3    225.0   0.435819887   3.22890   1.79596  -0.05710   0.01345
  27   43970.3    227.4   0.323158815   2.41954   0.06073   1.54281  -0.18862
  28   43845.1    228.1   0.030083950   0.22589  -0.47495  -0.01720   0.00287
  29   42734.8    234.0   0.002634972   0.02030  -0.14239   0.00492   0.00024
  30   44060.1    227.0   0.182368439   1.36263   0.00346  -0.94322   0.68771
  31   44167.5    226.4   0.243406820   1.81429  -1.34671  -0.02503   0.00458
  32   45249.6    221.0   0.123270670   0.89685  -0.03013   0.94462   0.06025
  33   48830.7    204.8   0.002274194   0.01533  -0.12301   0.01300   0.00562
  34   46266.8    216.1   0.200507886   1.42672  -0.00687  -1.19443   0.00363
  35   46356.0    215.7   0.162327723   1.15282  -1.07366   0.00747   0.00405
  36   42019.0    238.0   0.000243562   0.00191   0.04368   0.00063  -0.00023
  37   49563.7    201.8   0.158107554   1.05018   1.02477   0.00274  -0.00448
  38   49958.8    200.2   0.259989220   1.71324  -1.30889   0.00596   0.00269
  39   49225.1    203.1   0.119106193   0.79657  -0.89249   0.00169   0.00594
  40   51232.0    195.2   0.957443974   6.15245   2.48040   0.00222  -0.00859

-----------------------------------------------------------------------------
         ABSORPTION SPECTRUM VIA TRANSITION VELOCITY DIPOLE MOMENTS
-----------------------------------------------------------------------------
State   Energy    Wavelength   fosc        P2         PX        PY        PZ  
        (cm-1)      (nm)                 (au**2)     (au)      (au)      (au) 
-----------------------------------------------------------------------------
   1   29081.3    343.9   0.124275647   0.02470  -0.00002   0.15716  -0.00073
   2   31446.9    318.0   0.921537490   0.19806  -0.44504  -0.00008  -0.00026
   3   31878.8    313.7   0.140884846   0.03070   0.17520   0.00055   0.00070
   4   36550.3    273.6   0.368917019   0.09216  -0.30357   0.00008   0.00217
   5   32898.4    304.0   0.325004985   0.07308  -0.27032  -0.00201  -0.00029
   6   37861.3    264.1   0.312164843   0.08078  -0.00077   0.28400   0.01100
   7   35106.7    284.8   0.420255960   0.10083  -0.00117   0.31754   0.00088
   8   36072.7    277.2   0.000108522   0.00003   0.00499   0.00120   0.00065
   9   36982.9    270.4   0.193834337   0.04899   0.00128  -0.22103  -0.01165
  10   35139.6    284.6   0.023145343   0.00556   0.07443  -0.00346   0.00272
  11   36966.4    270.5   0.011799028   0.00298   0.00451   0.03843  -0.03852
  12   38222.7    261.6   0.000007822   0.00000   0.00067   0.00126   0.00009
  13   40433.0    247.3   0.001667554   0.00046   0.02132   0.00246   0.00046
  14   34978.5    285.9   0.002767057   0.00066  -0.00002   0.01255  -0.02245
  15   38388.4    260.5   0.010697971   0.00281  -0.05298   0.00031   0.00022
  16   39701.3    251.9   0.198270544   0.05380  -0.00011   0.23149   0.01455
  17   40664.2    245.9   0.106306130   0.02954  -0.17188   0.00174   0.00016
  18   41348.5    241.8   0.002218502   0.00063  -0.00164   0.02054   0.01422
  19   42461.9    235.5   0.291966025   0.08473  -0.00091  -0.29060   0.01668
  20   38720.5    258.3   0.368477693   0.09751   0.00004   0.31167   0.01931
  21   41428.0    241.4   1.006883376   0.28509   0.00022   0.53393  -0.00196
  22   43263.0    231.1   0.018946526   0.00560  -0.07107   0.02345   0.00139
  23   38068.0    262.7   0.097263896   0.02531  -0.01147  -0.15834  -0.01010
  24   41794.3    239.3   1.041153385   0.29740  -0.00052   0.54398   0.03854
  25   43812.4    228.2   0.023140080   0.00693   0.00019   0.08322  -0.00187
  26   44435.3    225.0   0.523705972   0.15905  -0.39860   0.01257  -0.00302
  27   43970.3    227.4   0.392588559   0.11798  -0.01347  -0.34067   0.04172
  28   43845.1    228.1   0.039681406   0.01189   0.10898   0.00379  -0.00062
  29   42734.8    234.0   0.003394831   0.00099   0.03147  -0.00107  -0.00005
  30   44060.1    227.0   0.226706449   0.06827  -0.00077   0.20926  -0.15645
  31   44167.5    226.4   0.299377294   0.09037   0.30056   0.00567  -0.00101
  32   45249.6    221.0   0.148006424   0.04577   0.00663  -0.21341  -0.01363
  33   48830.7    204.8   0.000628945   0.00021   0.01413  -0.00294  -0.00122
  34   46266.8    216.1   0.234599736   0.07418   0.00135   0.27236  -0.00114
  35   46356.0    215.7   0.184352395   0.05841   0.24167  -0.00170  -0.00085
  36   42019.0    238.0   0.000357781   0.00010  -0.01014  -0.00015   0.00006
  37   49563.7    201.8   0.167018103   0.05658  -0.23785  -0.00066   0.00110
  38   49958.8    200.2   0.270696041   0.09243   0.30401  -0.00141  -0.00069
  39   49225.1    203.1   0.132378248   0.04454   0.21103  -0.00038  -0.00140
  40   51232.0    195.2   0.984163053   0.34460  -0.58702  -0.00054   0.00202

-------------------------------------------------------------------
                             CD SPECTRUM
-------------------------------------------------------------------
State  Energy     Wavelength     R         MX        MY        MZ   
       (cm-1)       (nm)     (1e40*cgs)   (au)      (au)      (au)  
-------------------------------------------------------------------
   1   29081.3    343.9     -4.96141   0.01297   0.02211   2.38968
   2   31446.9    318.0    -55.47775  -0.04151  -0.01106   0.00124
   3   31878.8    313.7     11.27350  -0.02382   0.00530  -0.00038
   4   36550.3    273.6     -2.14102  -0.00255  -0.01030   0.00019
   5   32898.4    304.0      2.89066   0.00386  -0.00637  -0.00764
   6   37861.3    264.1     21.54615  -0.00108   0.03832  -1.73949
   7   35106.7    284.8    -10.63229  -0.00399   0.01035   1.03366
   8   36072.7    277.2     -0.44672   0.04075  -0.00069   0.00719
   9   36982.9    270.4    -26.53963   0.00030  -0.00019  -1.07642
  10   35139.6    284.6    -14.10427   0.08396   0.00474  -0.02568
  11   36966.4    270.5     31.85830   0.00387  -0.04323   0.34602
  12   38222.7    261.6     -0.17678   0.01534  -0.00019   0.00441
  13   40433.0    247.3      0.46389  -0.00886   0.00026   0.01725
  14   34978.5    285.9      3.74015   0.00002  -0.00343   0.08583
  15   38388.4    260.5     -0.73185  -0.00535  -0.00135   0.00118
  16   39701.3    251.9     27.05384  -0.00080   0.03997  -1.42938
  17   40664.2    245.9     59.13737   0.14134  -0.00303   0.00949
  18   41348.5    241.8     -4.16673   0.00264  -0.05439   0.26705
  19   42461.9    235.5      0.67039   0.00187  -0.08280  -1.93490
  20   38720.5    258.3     24.97931   0.00035   0.07632  -1.68362
  21   41428.0    241.4    -19.44496   0.00142   0.02541   2.93427
  22   43263.0    231.1      7.04863   0.05156   0.00046   0.16984
  23   38068.0    262.7    -25.04016   0.00766  -0.01746  -1.02804
  24   41794.3    239.3    111.56172  -0.00158   0.10803  -2.82992
  25   43812.4    228.2      1.63149  -0.00052   0.04205   0.28054
  26   44435.3    225.0    -25.02853  -0.02976  -0.01343  -0.03029
  27   43970.3    227.4    -40.56098   0.00466   0.05081   0.87323
  28   43845.1    228.1     10.38072  -0.04651   0.00336  -0.00437
  29   42734.8    234.0     -4.84037   0.07213   0.00088  -0.00356
  30   44060.1    227.0    -53.85739  -0.00387  -0.23216  -0.48451
  31   44167.5    226.4    -18.21495   0.02855   0.00798   0.00309
  32   45249.6    221.0     20.73650   0.00998   0.04858  -0.02664
  33   48830.7    204.8     -4.42306   0.07475   0.00129  -0.03615
  34   46266.8    216.1      9.92730   0.00970  -0.01052   2.36070
  35   46356.0    215.7     -2.76965   0.00547   0.00711  -0.01397
  36   42019.0    238.0     -0.08600  -0.00417  -0.00021  -0.00027
  37   49563.7    201.8    -30.45496  -0.06303  -0.00562  -0.00273
  38   49958.8    200.2      7.98997  -0.01293   0.00884  -0.00865
  39   49225.1    203.1    -43.02228   0.10225   0.00790  -0.00163
  40   51232.0    195.2     70.74371   0.06051  -0.01660   0.00031

-------------------------------------------------------------------
         CD SPECTRUM VIA TRANSITION VELOCITY DIPOLE MOMENTS        
-------------------------------------------------------------------
State  Energy     Wavelength     R         MX        MY        MZ   
       (cm-1)       (nm)     (1e40*cgs)   (au)      (au)      (au)  
-------------------------------------------------------------------
   1   29081.3    343.9     -6.19749   0.01297   0.02211   2.38968
   2   31446.9    318.0    -60.78331  -0.04151  -0.01106   0.00124
   3   31878.8    313.7     13.53777  -0.02382   0.00530  -0.00038
   4   36550.3    273.6     -2.18876  -0.00255  -0.01030   0.00019
   5   32898.4    304.0      3.23760   0.00386  -0.00637  -0.00764
   6   37861.3    264.1     22.56214  -0.00108   0.03832  -1.73949
   7   35106.7    284.8    -12.39306  -0.00399   0.01035   1.03366
   8   36072.7    277.2     -0.59429   0.04075  -0.00069   0.00719
   9   36982.9    270.4    -35.19618   0.00030  -0.00019  -1.07642
  10   35139.6    284.6    -18.14656   0.08396   0.00474  -0.02568
  11   36966.4    270.5     41.90993   0.00387  -0.04323   0.34602
  12   38222.7    261.6     -0.02811   0.01534  -0.00019   0.00441
  13   40433.0    247.3      0.46186  -0.00886   0.00026   0.01725
  14   34978.5    285.9      5.82771   0.00002  -0.00343   0.08583
  15   38388.4    260.5     -0.76298  -0.00535  -0.00135   0.00118
  16   39701.3    251.9     30.10130  -0.00080   0.03997  -1.42938
  17   40664.2    245.9     61.82482   0.14134  -0.00303   0.00949
  18   41348.5    241.8     -6.69706   0.00264  -0.05439   0.26705
  19   42461.9    235.5     20.00079   0.00187  -0.08280  -1.93490
  20   38720.5    258.3     23.32541   0.00035   0.07632  -1.68362
  21   41428.0    241.4    -19.49375   0.00142   0.02541   2.93427
  22   43263.0    231.1      8.17343   0.05156   0.00046   0.16984
  23   38068.0    262.7    -35.50960   0.00766  -0.01746  -1.02804
  24   41794.3    239.3    124.53390  -0.00158   0.10803  -2.82992
  25   43812.4    228.2     -7.02666  -0.00052   0.04205   0.28054
  26   44435.3    225.0    -27.44202  -0.02976  -0.01343  -0.03029
  27   43970.3    227.4    -44.85436   0.00466   0.05081   0.87323
  28   43845.1    228.1     11.92441  -0.04651   0.00336  -0.00437
  29   42734.8    234.0     -5.49429   0.07213   0.00088  -0.00356
  30   44060.1    227.0    -63.93197  -0.00387  -0.23216  -0.48451
  31   44167.5    226.4    -20.20242   0.02855   0.00798   0.00309
  32   45249.6    221.0     22.72556   0.00998   0.04858  -0.02664
  33   48830.7    204.8     -2.32434   0.07475   0.00129  -0.03615
  34   46266.8    216.1     12.38080   0.00970  -0.01052   2.36070
  35   46356.0    215.7     -2.94915   0.00547   0.00711  -0.01397
  36   42019.0    238.0     -0.10423  -0.00417  -0.00021  -0.00027
  37   49563.7    201.8    -31.30134  -0.06303  -0.00562  -0.00273
  38   49958.8    200.2      8.15212  -0.01293   0.00884  -0.00865
  39   49225.1    203.1    -45.35635   0.10225   0.00790  -0.00163
  40   51232.0    195.2     71.72357   0.06051  -0.01660   0.00031

Total run time:    10712.677 sec

           *** ORCA-CIS/TD-DFT FINISHED WITHOUT ERROR ***

Maximum memory used throughout the entire CIS-calculation: 4311.5 MB

-----------------------
CIS/TD-DFT TOTAL ENERGY
-----------------------

    E(SCF)  =  -1976.662242886 Eh
    DE(CIS) =      0.132504082 Eh (Root  1)
    ----------------------------- ---------
    E(tot)  =  -1976.529738804 Eh


-------------------------   --------------------
FINAL SINGLE POINT ENERGY     -1976.529738803717
-------------------------   --------------------


                            ***************************************
                            *     ORCA property calculations      *
                            ***************************************


  WARNING: The energy has been calculated at the MP2 level but the densities
           used in the property calculations are still SCF densities
           MP2 response densities have not been calculated 
           use %mp2 Density relaxed end
           or  %mp2 Density unrelaxed end

                                    ---------------------
                                    Active property flags
                                    ---------------------
   (+) Dipole Moment


------------------------------------------------------------------------------
                       ORCA ELECTRIC PROPERTIES CALCULATION
------------------------------------------------------------------------------

Dipole Moment Calculation                       ... on
Quadrupole Moment Calculation                   ... off
Polarizability Calculation                      ... off
GBWName                                         ... Au-alkyne_2-full_B2GPPLYP_def2SVP.gbw
Electron density                                ... Au-alkyne_2-full_B2GPPLYP_def2SVP.scfp
The origin for moment calculation is the CENTER OF MASS  = (-0.714600, -0.000155 -0.001243)

-------------
DIPOLE MOMENT
-------------
                                X             Y             Z
Electronic contribution:   -764.77607      -0.12569      -1.23484
Nuclear contribution   :    760.98124       0.12762       1.26625
                        -----------------------------------------
Total Dipole Moment    :     -3.79483       0.00193       0.03141
                        -----------------------------------------
Magnitude (a.u.)       :      3.79496
Magnitude (Debye)      :      9.64601



--------------------
Rotational spectrum 
--------------------
 
Rotational constants in cm-1:     0.003106     0.000590     0.000500 
Rotational constants in MHz :    93.110247    17.673572    14.995213 

 Dipole components along the rotational axes: 
x,y,z [a.u.] :    -3.794825     0.001957     0.031476 
x,y,z [Debye]:    -9.645677     0.004975     0.080006 

 

Timings for individual modules:

Sum of individual times         ...    11188.760 sec (= 186.479 min)
GTO integral calculation        ...        2.963 sec (=   0.049 min)   0.0 %
SCF iterations                  ...      279.340 sec (=   4.656 min)   2.5 %
MP2 module                      ...      193.176 sec (=   3.220 min)   1.7 %
CIS module                      ...    10713.282 sec (= 178.555 min)  95.8 %
                             ****ORCA TERMINATED NORMALLY****
TOTAL RUN TIME: 0 days 3 hours 6 minutes 31 seconds 26 msec
