 Entering Gaussian System, Link 0=g16
 Initial command:
 /share/apps/g16/E6B-113X_avx2/g16/l1.exe "/state/partition1/feherp/23950/Gau-28845.inp" -scrdir="/state/partition1/feherp/23950/"
 Default is to use a total of  16 processors:
                               16 via shared-memory
                                1 via Linda
 Entering Link 1 = /share/apps/g16/E6B-113X_avx2/g16/l1.exe PID=     28846.
  
 Copyright (c) 1988,1990,1992,1993,1995,1998,2003,2009,2016,
            Gaussian, Inc.  All Rights Reserved.
  
 This is part of the Gaussian(R) 16 program.  It is based on
 the Gaussian(R) 09 system (copyright 2009, Gaussian, Inc.),
 the Gaussian(R) 03 system (copyright 2003, Gaussian, Inc.),
 the Gaussian(R) 98 system (copyright 1998, Gaussian, Inc.),
 the Gaussian(R) 94 system (copyright 1995, Gaussian, Inc.),
 the Gaussian 92(TM) system (copyright 1992, Gaussian, Inc.),
 the Gaussian 90(TM) system (copyright 1990, Gaussian, Inc.),
 the Gaussian 88(TM) system (copyright 1988, Gaussian, Inc.),
 the Gaussian 86(TM) system (copyright 1986, Carnegie Mellon
 University), and the Gaussian 82(TM) system (copyright 1983,
 Carnegie Mellon University). Gaussian is a federally registered
 trademark of Gaussian, Inc.
  
 This software contains proprietary and confidential information,
 including trade secrets, belonging to Gaussian, Inc.
  
 This software is provided under written license and may be
 used, copied, transmitted, or stored only in accord with that
 written license.
  
 The following legend is applicable only to US Government
 contracts under FAR:
  
                    RESTRICTED RIGHTS LEGEND
  
 Use, reproduction and disclosure by the US Government is
 subject to restrictions as set forth in subparagraphs (a)
 and (c) of the Commercial Computer Software - Restricted
 Rights clause in FAR 52.227-19.
  
 Gaussian, Inc.
 340 Quinnipiac St., Bldg. 40, Wallingford CT 06492
  
  
 ---------------------------------------------------------------
 Warning -- This program may not be used in any manner that
 competes with the business of Gaussian, Inc. or will provide
 assistance to any competitor of Gaussian, Inc.  The licensee
 of this program is prohibited from giving any competitor of
 Gaussian, Inc. access to this program.  By using this program,
 the user acknowledges that Gaussian, Inc. is engaged in the
 business of creating and licensing software in the field of
 computational chemistry and represents and warrants to the
 licensee that it is not a competitor of Gaussian, Inc. and that
 it will not use this program in any manner prohibited above.
 ---------------------------------------------------------------
  

 Cite this work as:
 Gaussian 16, Revision A.03,
 M. J. Frisch, G. W. Trucks, H. B. Schlegel, G. E. Scuseria, 
 M. A. Robb, J. R. Cheeseman, G. Scalmani, V. Barone, 
 G. A. Petersson, H. Nakatsuji, X. Li, M. Caricato, A. V. Marenich, 
 J. Bloino, B. G. Janesko, R. Gomperts, B. Mennucci, H. P. Hratchian, 
 J. V. Ortiz, A. F. Izmaylov, J. L. Sonnenberg, D. Williams-Young, 
 F. Ding, F. Lipparini, F. Egidi, J. Goings, B. Peng, A. Petrone, 
 T. Henderson, D. Ranasinghe, V. G. Zakrzewski, J. Gao, N. Rega, 
 G. Zheng, W. Liang, M. Hada, M. Ehara, K. Toyota, R. Fukuda, 
 J. Hasegawa, M. Ishida, T. Nakajima, Y. Honda, O. Kitao, H. Nakai, 
 T. Vreven, K. Throssell, J. A. Montgomery, Jr., J. E. Peralta, 
 F. Ogliaro, M. J. Bearpark, J. J. Heyd, E. N. Brothers, K. N. Kudin, 
 V. N. Staroverov, T. A. Keith, R. Kobayashi, J. Normand, 
 K. Raghavachari, A. P. Rendell, J. C. Burant, S. S. Iyengar, 
 J. Tomasi, M. Cossi, J. M. Millam, M. Klene, C. Adamo, R. Cammi, 
 J. W. Ochterski, R. L. Martin, K. Morokuma, O. Farkas, 
 J. B. Foresman, and D. J. Fox, Gaussian, Inc., Wallingford CT, 2016.
 
 ******************************************
 Gaussian 16:  ES64L-G16RevA.03 25-Dec-2016
                19-Oct-2023 
 ******************************************
 %chk=cp.chk
 %NProcshared=16
 Will use up to   16 processors via shared memory.
 ----------------------------------------------------------------------
 #p cam-b3lyp/def2svp opt Symmetry=None int=ultrafine scrf=(SMD,solvent
 =Acetonitrile) EmpiricalDispersion=GD3BJ
 ----------------------------------------------------------------------
 1/18=20,19=15,26=6,38=1/1,3;
 2/9=110,12=2,15=3,17=6,18=5,40=1/2;
 3/5=43,7=101,11=2,25=1,30=1,70=32201,71=1,72=2,74=-40,75=-5,124=41/1,2,3;
 4//1;
 5/5=2,38=5,53=2/2;
 6/7=2,8=2,9=2,10=2,28=1/1;
 7/30=1/1,2,3,16;
 1/18=20,19=15,26=6/3(2);
 2/9=110,15=3/2;
 99//99;
 2/9=110,15=3/2;
 3/5=43,7=101,11=2,25=1,30=1,70=32205,71=1,72=2,74=-40,75=-5,124=41/1,2,3;
 4/5=5,16=3,69=1/1;
 5/5=2,38=5,53=2/2;
 7/30=1/1,2,3,16;
 1/18=20,19=15,26=6/3(-5);
 2/9=110,15=3/2;
 6/7=2,8=2,9=2,10=2,19=2,28=1/1;
 99/9=1/99;
 Leave Link    1 at Thu Oct 19 12:09:08 2023, MaxMem=           0 cpu:               0.9 elap:               0.1
 (Enter /share/apps/g16/E6B-113X_avx2/g16/l101.exe)
 -----
 Title
 -----
 Symbolic Z-matrix:
 Charge =  0 Multiplicity = 1
 Au                   -4.556    -0.00043  -0.00829 
 C                    -7.22585   1.19954   0.01862 
 C                    -7.22658  -1.19885   0.01342 
 C                    -8.62438  -1.21324   0.02615 
 C                    -9.30861   0.00093   0.03405 
 C                    -8.62365   1.21471   0.03023 
 C                    -6.3128    2.3508    0.01427 
 C                    -4.91252   2.08397   0.0013 
 C                    -4.03109   3.16361  -0.00383 
 C                    -4.5051    4.48078   0.00383 
 C                    -5.87715   4.73461   0.0172 
 C                    -6.77952   3.67377   0.02249 
 H                    -9.16704  -2.15857   0.02926 
 H                    -10.40047   0.00124   0.04337 
 H                    -9.16575   2.16035   0.03632 
 H                    -2.95072   2.98791  -0.01421 
 H                    -3.79694   5.31401  -0.00062 
 H                    -6.24648   5.76258   0.02339 
 H                    -7.85343   3.87817   0.03273 
 C                    -6.31426  -2.35064   0.00254 
 C                    -6.78183  -3.67333   0.00528 
 C                    -4.91383  -2.08464  -0.0104 
 C                    -5.88014  -4.73472  -0.00426 
 H                    -7.85586  -3.87709   0.01524 
 C                    -4.03309  -3.16482  -0.01965 
 C                    -4.50793  -4.48171  -0.01663 
 H                    -6.25013  -5.76248  -0.00182 
 H                    -2.9526   -2.98978  -0.02896 
 H                    -3.8003   -5.31537  -0.02383 
 N                    -6.60294   0.00016   0.01037 
 C                    -2.57841  -0.00118  -0.02053 
 C                    -1.34801  -0.00174  -0.02236 
 C                     0.0768   -0.00271  -0.02158 
 C                     0.80508   0.81003  -0.9147 
 C                     0.80143  -0.81601   0.87406 
 C                     2.19349   0.80283  -0.9191 
 H                     0.26653   1.44236  -1.62389 
 C                     2.18972  -0.80873   0.88441 
 H                     0.25989  -1.44815   1.58115 
 C                     2.90006  -0.00266  -0.01561 
 H                     2.73918   1.4168   -1.63847 
 H                     2.73224  -1.42247   1.60635 
 C                     5.13004  -1.12969  -0.00619 
 C                     5.12795   1.12814  -0.00766 
 C                     4.7938   -2.48514  -0.05203 
 C                     6.4849   -0.72083   0.00019 
 C                     4.7887    2.48295   0.03458 
 C                     6.48356   0.72178   0.00096 
 C                     5.83048  -3.41186  -0.06506 
 H                     3.75423  -2.81725  -0.08427 
 C                     7.50691  -1.68082  -0.01154 
 C                     5.82344   3.41159   0.05945 
 H                     3.74821   2.81309   0.05505 
 C                     7.50357   1.68366   0.02456 
 C                     7.19563  -3.04171  -0.03798 
 H                     5.56828  -4.47306  -0.09961 
 H                     8.54524  -1.34263  -0.0045 
 C                     7.1895    3.04397   0.04789 
 H                     5.55892   4.47229   0.09109 
 H                     8.54253   1.34737   0.02926 
 N                     4.31059  -0.00156  -0.01142 
 C                     8.25698   4.14062   0.06616 
 C                     8.26525  -4.13641  -0.04421 
 C                     8.11588  -4.98826  -1.30973 
 H                     8.87457  -5.78573  -1.33308 
 H                     7.13076  -5.47381  -1.36851 
 H                     8.24297  -4.382    -2.2196 
 C                     9.67563  -3.55528  -0.01599 
 H                     10.41836  -4.36652  -0.0191 
 H                     9.88129  -2.92207  -0.89186 
 H                     9.85722  -2.95061   0.88503 
 C                     8.08363  -5.03075   1.1875 
 H                     8.18524  -4.45557   2.12048 
 H                     7.09799  -5.51864   1.20327 
 H                     8.84278  -5.82798   1.20431 
 C                     8.09009   4.99424   1.32831 
 H                     8.8476    5.79254   1.36032 
 H                     7.10385   5.47895   1.37346 
 H                     8.20589   4.38955   2.24073 
 C                     9.66865   3.562     0.05683 
 H                     9.86302   2.95672  -0.8411 
 H                     10.40982   4.37458   0.06865 
 H                     9.86399   2.93007   0.93598 
 C                     8.08941   5.03265  -1.16921 
 H                     8.2048    4.45628  -2.09984 
 H                     7.10278   5.51791  -1.19878 
 H                     8.8467    5.8318   -1.17728 
 
 ITRead=  0  0  0  0  0  0  0  0  0  0  0  0  0  0  0  0  0  0  0  0
 ITRead=  0  0  0  0  0  0  0  0  0  0  0  0  0  0  0  0  0  0  0  0
 ITRead=  0  0  0  0  0  0  0  0  0  0  0  0  0  0  0  0  0  0  0  0
 ITRead=  0  0  0  0  0  0  0  0  0  0  0  0  0  0  0  0  0  0  0  0
 ITRead=  0  0  0  0  0  0  0
 MicOpt= -1 -1 -1 -1 -1 -1 -1 -1 -1 -1 -1 -1 -1 -1 -1 -1 -1 -1 -1 -1
 MicOpt= -1 -1 -1 -1 -1 -1 -1 -1 -1 -1 -1 -1 -1 -1 -1 -1 -1 -1 -1 -1
 MicOpt= -1 -1 -1 -1 -1 -1 -1 -1 -1 -1 -1 -1 -1 -1 -1 -1 -1 -1 -1 -1
 MicOpt= -1 -1 -1 -1 -1 -1 -1 -1 -1 -1 -1 -1 -1 -1 -1 -1 -1 -1 -1 -1
 MicOpt= -1 -1 -1 -1 -1 -1 -1
 NAtoms=     87 NQM=       87 NQMF=       0 NMMI=      0 NMMIF=      0
                NMic=       0 NMicF=      0.
                    Isotopes and Nuclear Properties:
 (Nuclear quadrupole moments (NQMom) in fm**2, nuclear magnetic moments (NMagM)
  in nuclear magnetons)

  Atom         1           2           3           4           5           6           7           8           9          10
 IAtWgt=         197          12          12          12          12          12          12          12          12          12
 AtmWgt= 196.9666000  12.0000000  12.0000000  12.0000000  12.0000000  12.0000000  12.0000000  12.0000000  12.0000000  12.0000000
 NucSpn=           3           0           0           0           0           0           0           0           0           0
 AtZEff=  -0.0000000  -0.0000000  -0.0000000  -0.0000000  -0.0000000  -0.0000000  -0.0000000  -0.0000000  -0.0000000  -0.0000000
 NQMom=   54.7000000   0.0000000   0.0000000   0.0000000   0.0000000   0.0000000   0.0000000   0.0000000   0.0000000   0.0000000
 NMagM=    0.1481590   0.0000000   0.0000000   0.0000000   0.0000000   0.0000000   0.0000000   0.0000000   0.0000000   0.0000000
 AtZNuc=  79.0000000   6.0000000   6.0000000   6.0000000   6.0000000   6.0000000   6.0000000   6.0000000   6.0000000   6.0000000

  Atom        11          12          13          14          15          16          17          18          19          20
 IAtWgt=          12          12           1           1           1           1           1           1           1          12
 AtmWgt=  12.0000000  12.0000000   1.0078250   1.0078250   1.0078250   1.0078250   1.0078250   1.0078250   1.0078250  12.0000000
 NucSpn=           0           0           1           1           1           1           1           1           1           0
 AtZEff=  -0.0000000  -0.0000000  -0.0000000  -0.0000000  -0.0000000  -0.0000000  -0.0000000  -0.0000000  -0.0000000  -0.0000000
 NQMom=    0.0000000   0.0000000   0.0000000   0.0000000   0.0000000   0.0000000   0.0000000   0.0000000   0.0000000   0.0000000
 NMagM=    0.0000000   0.0000000   2.7928460   2.7928460   2.7928460   2.7928460   2.7928460   2.7928460   2.7928460   0.0000000
 AtZNuc=   6.0000000   6.0000000   1.0000000   1.0000000   1.0000000   1.0000000   1.0000000   1.0000000   1.0000000   6.0000000

  Atom        21          22          23          24          25          26          27          28          29          30
 IAtWgt=          12          12          12           1          12          12           1           1           1          14
 AtmWgt=  12.0000000  12.0000000  12.0000000   1.0078250  12.0000000  12.0000000   1.0078250   1.0078250   1.0078250  14.0030740
 NucSpn=           0           0           0           1           0           0           1           1           1           2
 AtZEff=  -0.0000000  -0.0000000  -0.0000000  -0.0000000  -0.0000000  -0.0000000  -0.0000000  -0.0000000  -0.0000000  -0.0000000
 NQMom=    0.0000000   0.0000000   0.0000000   0.0000000   0.0000000   0.0000000   0.0000000   0.0000000   0.0000000   2.0440000
 NMagM=    0.0000000   0.0000000   0.0000000   2.7928460   0.0000000   0.0000000   2.7928460   2.7928460   2.7928460   0.4037610
 AtZNuc=   6.0000000   6.0000000   6.0000000   1.0000000   6.0000000   6.0000000   1.0000000   1.0000000   1.0000000   7.0000000

  Atom        31          32          33          34          35          36          37          38          39          40
 IAtWgt=          12          12          12          12          12          12           1          12           1          12
 AtmWgt=  12.0000000  12.0000000  12.0000000  12.0000000  12.0000000  12.0000000   1.0078250  12.0000000   1.0078250  12.0000000
 NucSpn=           0           0           0           0           0           0           1           0           1           0
 AtZEff=  -0.0000000  -0.0000000  -0.0000000  -0.0000000  -0.0000000  -0.0000000  -0.0000000  -0.0000000  -0.0000000  -0.0000000
 NQMom=    0.0000000   0.0000000   0.0000000   0.0000000   0.0000000   0.0000000   0.0000000   0.0000000   0.0000000   0.0000000
 NMagM=    0.0000000   0.0000000   0.0000000   0.0000000   0.0000000   0.0000000   2.7928460   0.0000000   2.7928460   0.0000000
 AtZNuc=   6.0000000   6.0000000   6.0000000   6.0000000   6.0000000   6.0000000   1.0000000   6.0000000   1.0000000   6.0000000

  Atom        41          42          43          44          45          46          47          48          49          50
 IAtWgt=           1           1          12          12          12          12          12          12          12           1
 AtmWgt=   1.0078250   1.0078250  12.0000000  12.0000000  12.0000000  12.0000000  12.0000000  12.0000000  12.0000000   1.0078250
 NucSpn=           1           1           0           0           0           0           0           0           0           1
 AtZEff=  -0.0000000  -0.0000000  -0.0000000  -0.0000000  -0.0000000  -0.0000000  -0.0000000  -0.0000000  -0.0000000  -0.0000000
 NQMom=    0.0000000   0.0000000   0.0000000   0.0000000   0.0000000   0.0000000   0.0000000   0.0000000   0.0000000   0.0000000
 NMagM=    2.7928460   2.7928460   0.0000000   0.0000000   0.0000000   0.0000000   0.0000000   0.0000000   0.0000000   2.7928460
 AtZNuc=   1.0000000   1.0000000   6.0000000   6.0000000   6.0000000   6.0000000   6.0000000   6.0000000   6.0000000   1.0000000

  Atom        51          52          53          54          55          56          57          58          59          60
 IAtWgt=          12          12           1          12          12           1           1          12           1           1
 AtmWgt=  12.0000000  12.0000000   1.0078250  12.0000000  12.0000000   1.0078250   1.0078250  12.0000000   1.0078250   1.0078250
 NucSpn=           0           0           1           0           0           1           1           0           1           1
 AtZEff=  -0.0000000  -0.0000000  -0.0000000  -0.0000000  -0.0000000  -0.0000000  -0.0000000  -0.0000000  -0.0000000  -0.0000000
 NQMom=    0.0000000   0.0000000   0.0000000   0.0000000   0.0000000   0.0000000   0.0000000   0.0000000   0.0000000   0.0000000
 NMagM=    0.0000000   0.0000000   2.7928460   0.0000000   0.0000000   2.7928460   2.7928460   0.0000000   2.7928460   2.7928460
 AtZNuc=   6.0000000   6.0000000   1.0000000   6.0000000   6.0000000   1.0000000   1.0000000   6.0000000   1.0000000   1.0000000

  Atom        61          62          63          64          65          66          67          68          69          70
 IAtWgt=          14          12          12          12           1           1           1          12           1           1
 AtmWgt=  14.0030740  12.0000000  12.0000000  12.0000000   1.0078250   1.0078250   1.0078250  12.0000000   1.0078250   1.0078250
 NucSpn=           2           0           0           0           1           1           1           0           1           1
 AtZEff=  -0.0000000  -0.0000000  -0.0000000  -0.0000000  -0.0000000  -0.0000000  -0.0000000  -0.0000000  -0.0000000  -0.0000000
 NQMom=    2.0440000   0.0000000   0.0000000   0.0000000   0.0000000   0.0000000   0.0000000   0.0000000   0.0000000   0.0000000
 NMagM=    0.4037610   0.0000000   0.0000000   0.0000000   2.7928460   2.7928460   2.7928460   0.0000000   2.7928460   2.7928460
 AtZNuc=   7.0000000   6.0000000   6.0000000   6.0000000   1.0000000   1.0000000   1.0000000   6.0000000   1.0000000   1.0000000

  Atom        71          72          73          74          75          76          77          78          79          80
 IAtWgt=           1          12           1           1           1          12           1           1           1          12
 AtmWgt=   1.0078250  12.0000000   1.0078250   1.0078250   1.0078250  12.0000000   1.0078250   1.0078250   1.0078250  12.0000000
 NucSpn=           1           0           1           1           1           0           1           1           1           0
 AtZEff=  -0.0000000  -0.0000000  -0.0000000  -0.0000000  -0.0000000  -0.0000000  -0.0000000  -0.0000000  -0.0000000  -0.0000000
 NQMom=    0.0000000   0.0000000   0.0000000   0.0000000   0.0000000   0.0000000   0.0000000   0.0000000   0.0000000   0.0000000
 NMagM=    2.7928460   0.0000000   2.7928460   2.7928460   2.7928460   0.0000000   2.7928460   2.7928460   2.7928460   0.0000000
 AtZNuc=   1.0000000   6.0000000   1.0000000   1.0000000   1.0000000   6.0000000   1.0000000   1.0000000   1.0000000   6.0000000

  Atom        81          82          83          84          85          86          87
 IAtWgt=           1           1           1          12           1           1           1
 AtmWgt=   1.0078250   1.0078250   1.0078250  12.0000000   1.0078250   1.0078250   1.0078250
 NucSpn=           1           1           1           0           1           1           1
 AtZEff=  -0.0000000  -0.0000000  -0.0000000  -0.0000000  -0.0000000  -0.0000000  -0.0000000
 NQMom=    0.0000000   0.0000000   0.0000000   0.0000000   0.0000000   0.0000000   0.0000000
 NMagM=    2.7928460   2.7928460   2.7928460   0.0000000   2.7928460   2.7928460   2.7928460
 AtZNuc=   1.0000000   1.0000000   1.0000000   6.0000000   1.0000000   1.0000000   1.0000000
 Leave Link  101 at Thu Oct 19 12:09:08 2023, MaxMem=  1887436800 cpu:               3.7 elap:               0.3
 (Enter /share/apps/g16/E6B-113X_avx2/g16/l103.exe)

 GradGradGradGradGradGradGradGradGradGradGradGradGradGradGradGradGradGrad
 Berny optimization.
 Initialization pass.
                           ----------------------------
                           !    Initial Parameters    !
                           ! (Angstroms and Degrees)  !
 --------------------------                            --------------------------
 ! Name  Definition              Value          Derivative Info.                !
 --------------------------------------------------------------------------------
 ! R1    R(1,8)                  2.1147         estimate D2E/DX2                !
 ! R2    R(1,22)                 2.1147         estimate D2E/DX2                !
 ! R3    R(1,30)                 2.047          estimate D2E/DX2                !
 ! R4    R(1,31)                 1.9776         estimate D2E/DX2                !
 ! R5    R(2,6)                  1.3979         estimate D2E/DX2                !
 ! R6    R(2,7)                  1.4694         estimate D2E/DX2                !
 ! R7    R(2,30)                 1.3515         estimate D2E/DX2                !
 ! R8    R(3,4)                  1.3979         estimate D2E/DX2                !
 ! R9    R(3,20)                 1.4694         estimate D2E/DX2                !
 ! R10   R(3,30)                 1.3515         estimate D2E/DX2                !
 ! R11   R(4,5)                  1.3937         estimate D2E/DX2                !
 ! R12   R(4,13)                 1.09           estimate D2E/DX2                !
 ! R13   R(5,6)                  1.3937         estimate D2E/DX2                !
 ! R14   R(5,14)                 1.0919         estimate D2E/DX2                !
 ! R15   R(6,15)                 1.09           estimate D2E/DX2                !
 ! R16   R(7,8)                  1.4255         estimate D2E/DX2                !
 ! R17   R(7,12)                 1.4029         estimate D2E/DX2                !
 ! R18   R(8,9)                  1.3938         estimate D2E/DX2                !
 ! R19   R(9,10)                 1.3999         estimate D2E/DX2                !
 ! R20   R(9,16)                 1.0946         estimate D2E/DX2                !
 ! R21   R(10,11)                1.3954         estimate D2E/DX2                !
 ! R22   R(10,17)                1.0935         estimate D2E/DX2                !
 ! R23   R(11,12)                1.3927         estimate D2E/DX2                !
 ! R24   R(11,18)                1.0923         estimate D2E/DX2                !
 ! R25   R(12,19)                1.0932         estimate D2E/DX2                !
 ! R26   R(20,21)                1.4029         estimate D2E/DX2                !
 ! R27   R(20,22)                1.4255         estimate D2E/DX2                !
 ! R28   R(21,23)                1.3927         estimate D2E/DX2                !
 ! R29   R(21,24)                1.0932         estimate D2E/DX2                !
 ! R30   R(22,25)                1.3938         estimate D2E/DX2                !
 ! R31   R(23,26)                1.3954         estimate D2E/DX2                !
 ! R32   R(23,27)                1.0923         estimate D2E/DX2                !
 ! R33   R(25,26)                1.3999         estimate D2E/DX2                !
 ! R34   R(25,28)                1.0946         estimate D2E/DX2                !
 ! R35   R(26,29)                1.0935         estimate D2E/DX2                !
 ! R36   R(31,32)                1.2304         estimate D2E/DX2                !
 ! R37   R(32,33)                1.4248         estimate D2E/DX2                !
 ! R38   R(33,34)                1.4102         estimate D2E/DX2                !
 ! R39   R(33,35)                1.4102         estimate D2E/DX2                !
 ! R40   R(34,36)                1.3884         estimate D2E/DX2                !
 ! R41   R(34,37)                1.0922         estimate D2E/DX2                !
 ! R42   R(35,38)                1.3884         estimate D2E/DX2                !
 ! R43   R(35,39)                1.0922         estimate D2E/DX2                !
 ! R44   R(36,40)                1.4015         estimate D2E/DX2                !
 ! R45   R(36,41)                1.0919         estimate D2E/DX2                !
 ! R46   R(38,40)                1.4016         estimate D2E/DX2                !
 ! R47   R(38,42)                1.0919         estimate D2E/DX2                !
 ! R48   R(40,61)                1.4105         estimate D2E/DX2                !
 ! R49   R(43,45)                1.3973         estimate D2E/DX2                !
 ! R50   R(43,46)                1.4152         estimate D2E/DX2                !
 ! R51   R(43,61)                1.3944         estimate D2E/DX2                !
 ! R52   R(44,47)                1.3973         estimate D2E/DX2                !
 ! R53   R(44,48)                1.4152         estimate D2E/DX2                !
 ! R54   R(44,61)                1.3944         estimate D2E/DX2                !
 ! R55   R(45,49)                1.3906         estimate D2E/DX2                !
 ! R56   R(45,50)                1.0918         estimate D2E/DX2                !
 ! R57   R(46,48)                1.4426         estimate D2E/DX2                !
 ! R58   R(46,51)                1.4022         estimate D2E/DX2                !
 ! R59   R(47,52)                1.3906         estimate D2E/DX2                !
 ! R60   R(47,53)                1.0918         estimate D2E/DX2                !
 ! R61   R(48,54)                1.4022         estimate D2E/DX2                !
 ! R62   R(49,55)                1.4147         estimate D2E/DX2                !
 ! R63   R(49,56)                1.0937         estimate D2E/DX2                !
 ! R64   R(51,55)                1.3963         estimate D2E/DX2                !
 ! R65   R(51,57)                1.092          estimate D2E/DX2                !
 ! R66   R(52,58)                1.4147         estimate D2E/DX2                !
 ! R67   R(52,59)                1.0937         estimate D2E/DX2                !
 ! R68   R(54,58)                1.3963         estimate D2E/DX2                !
 ! R69   R(54,60)                1.092          estimate D2E/DX2                !
 ! R70   R(55,63)                1.5305         estimate D2E/DX2                !
 ! R71   R(58,62)                1.5305         estimate D2E/DX2                !
 ! R72   R(62,76)                1.5328         estimate D2E/DX2                !
 ! R73   R(62,80)                1.5257         estimate D2E/DX2                !
 ! R74   R(62,84)                1.5329         estimate D2E/DX2                !
 ! R75   R(63,64)                1.5328         estimate D2E/DX2                !
 ! R76   R(63,68)                1.5257         estimate D2E/DX2                !
 ! R77   R(63,72)                1.533          estimate D2E/DX2                !
 ! R78   R(64,65)                1.101          estimate D2E/DX2                !
 ! R79   R(64,66)                1.0999         estimate D2E/DX2                !
 ! R80   R(64,67)                1.1007         estimate D2E/DX2                !
 ! R81   R(68,69)                1.0999         estimate D2E/DX2                !
 ! R82   R(68,70)                1.1002         estimate D2E/DX2                !
 ! R83   R(68,71)                1.1002         estimate D2E/DX2                !
 ! R84   R(72,73)                1.1007         estimate D2E/DX2                !
 ! R85   R(72,74)                1.0999         estimate D2E/DX2                !
 ! R86   R(72,75)                1.101          estimate D2E/DX2                !
 ! R87   R(76,77)                1.101          estimate D2E/DX2                !
 ! R88   R(76,78)                1.0998         estimate D2E/DX2                !
 ! R89   R(76,79)                1.1007         estimate D2E/DX2                !
 ! R90   R(80,81)                1.1002         estimate D2E/DX2                !
 ! R91   R(80,82)                1.0999         estimate D2E/DX2                !
 ! R92   R(80,83)                1.1002         estimate D2E/DX2                !
 ! R93   R(84,85)                1.1007         estimate D2E/DX2                !
 ! R94   R(84,86)                1.0999         estimate D2E/DX2                !
 ! R95   R(84,87)                1.101          estimate D2E/DX2                !
 ! A1    A(8,1,22)             160.5507         estimate D2E/DX2                !
 ! A2    A(8,1,30)              80.2753         estimate D2E/DX2                !
 ! A3    A(8,1,31)              99.7294         estimate D2E/DX2                !
 ! A4    A(22,1,30)             80.2755         estimate D2E/DX2                !
 ! A5    A(22,1,31)             99.7197         estimate D2E/DX2                !
 ! A6    A(6,2,7)              127.7956         estimate D2E/DX2                !
 ! A7    A(6,2,30)             118.069          estimate D2E/DX2                !
 ! A8    A(7,2,30)             114.1354         estimate D2E/DX2                !
 ! A9    A(4,3,20)             127.7944         estimate D2E/DX2                !
 ! A10   A(4,3,30)             118.0696         estimate D2E/DX2                !
 ! A11   A(20,3,30)            114.136          estimate D2E/DX2                !
 ! A12   A(3,4,5)              118.8146         estimate D2E/DX2                !
 ! A13   A(3,4,13)             120.4476         estimate D2E/DX2                !
 ! A14   A(5,4,13)             120.7378         estimate D2E/DX2                !
 ! A15   A(4,5,6)              121.1588         estimate D2E/DX2                !
 ! A16   A(4,5,14)             119.4208         estimate D2E/DX2                !
 ! A17   A(6,5,14)             119.4204         estimate D2E/DX2                !
 ! A18   A(2,6,5)              118.8151         estimate D2E/DX2                !
 ! A19   A(2,6,15)             120.4471         estimate D2E/DX2                !
 ! A20   A(5,6,15)             120.7378         estimate D2E/DX2                !
 ! A21   A(2,7,8)              117.629          estimate D2E/DX2                !
 ! A22   A(2,7,12)             122.1487         estimate D2E/DX2                !
 ! A23   A(8,7,12)             120.2223         estimate D2E/DX2                !
 ! A24   A(1,8,7)              110.4965         estimate D2E/DX2                !
 ! A25   A(1,8,9)              131.0629         estimate D2E/DX2                !
 ! A26   A(7,8,9)              118.4406         estimate D2E/DX2                !
 ! A27   A(8,9,10)             120.9767         estimate D2E/DX2                !
 ! A28   A(8,9,16)             119.9923         estimate D2E/DX2                !
 ! A29   A(10,9,16)            119.031          estimate D2E/DX2                !
 ! A30   A(9,10,11)            120.275          estimate D2E/DX2                !
 ! A31   A(9,10,17)            119.8442         estimate D2E/DX2                !
 ! A32   A(11,10,17)           119.8808         estimate D2E/DX2                !
 ! A33   A(10,11,12)           119.9047         estimate D2E/DX2                !
 ! A34   A(10,11,18)           120.2449         estimate D2E/DX2                !
 ! A35   A(12,11,18)           119.8504         estimate D2E/DX2                !
 ! A36   A(7,12,11)            120.1806         estimate D2E/DX2                !
 ! A37   A(7,12,19)            120.2096         estimate D2E/DX2                !
 ! A38   A(11,12,19)           119.6097         estimate D2E/DX2                !
 ! A39   A(3,20,21)            122.1473         estimate D2E/DX2                !
 ! A40   A(3,20,22)            117.6298         estimate D2E/DX2                !
 ! A41   A(21,20,22)           120.2229         estimate D2E/DX2                !
 ! A42   A(20,21,23)           120.1807         estimate D2E/DX2                !
 ! A43   A(20,21,24)           120.2101         estimate D2E/DX2                !
 ! A44   A(23,21,24)           119.6092         estimate D2E/DX2                !
 ! A45   A(1,22,20)            110.4953         estimate D2E/DX2                !
 ! A46   A(1,22,25)            131.0647         estimate D2E/DX2                !
 ! A47   A(20,22,25)           118.4399         estimate D2E/DX2                !
 ! A48   A(21,23,26)           119.9045         estimate D2E/DX2                !
 ! A49   A(21,23,27)           119.8505         estimate D2E/DX2                !
 ! A50   A(26,23,27)           120.245          estimate D2E/DX2                !
 ! A51   A(22,25,26)           120.9772         estimate D2E/DX2                !
 ! A52   A(22,25,28)           119.9923         estimate D2E/DX2                !
 ! A53   A(26,25,28)           119.0305         estimate D2E/DX2                !
 ! A54   A(23,26,25)           120.2748         estimate D2E/DX2                !
 ! A55   A(23,26,29)           119.881          estimate D2E/DX2                !
 ! A56   A(25,26,29)           119.8442         estimate D2E/DX2                !
 ! A57   A(1,30,2)             117.4639         estimate D2E/DX2                !
 ! A58   A(1,30,3)             117.4634         estimate D2E/DX2                !
 ! A59   A(2,30,3)             125.0728         estimate D2E/DX2                !
 ! A60   A(32,33,34)           121.0448         estimate D2E/DX2                !
 ! A61   A(32,33,35)           120.9695         estimate D2E/DX2                !
 ! A62   A(34,33,35)           117.9856         estimate D2E/DX2                !
 ! A63   A(33,34,36)           121.0281         estimate D2E/DX2                !
 ! A64   A(33,34,37)           119.3584         estimate D2E/DX2                !
 ! A65   A(36,34,37)           119.6063         estimate D2E/DX2                !
 ! A66   A(33,35,38)           121.0326         estimate D2E/DX2                !
 ! A67   A(33,35,39)           119.3536         estimate D2E/DX2                !
 ! A68   A(38,35,39)           119.6058         estimate D2E/DX2                !
 ! A69   A(34,36,40)           120.3355         estimate D2E/DX2                !
 ! A70   A(34,36,41)           119.9288         estimate D2E/DX2                !
 ! A71   A(40,36,41)           119.7304         estimate D2E/DX2                !
 ! A72   A(35,38,40)           120.3336         estimate D2E/DX2                !
 ! A73   A(35,38,42)           119.9221         estimate D2E/DX2                !
 ! A74   A(40,38,42)           119.7383         estimate D2E/DX2                !
 ! A75   A(36,40,38)           119.2735         estimate D2E/DX2                !
 ! A76   A(36,40,61)           120.3712         estimate D2E/DX2                !
 ! A77   A(38,40,61)           120.3553         estimate D2E/DX2                !
 ! A78   A(45,43,46)           120.7152         estimate D2E/DX2                !
 ! A79   A(45,43,61)           130.0392         estimate D2E/DX2                !
 ! A80   A(46,43,61)           109.202          estimate D2E/DX2                !
 ! A81   A(47,44,48)           120.7158         estimate D2E/DX2                !
 ! A82   A(47,44,61)           130.0396         estimate D2E/DX2                !
 ! A83   A(48,44,61)           109.2006         estimate D2E/DX2                !
 ! A84   A(43,45,49)           117.8654         estimate D2E/DX2                !
 ! A85   A(43,45,50)           121.6793         estimate D2E/DX2                !
 ! A86   A(49,45,50)           120.4538         estimate D2E/DX2                !
 ! A87   A(43,46,48)           106.739          estimate D2E/DX2                !
 ! A88   A(43,46,51)           119.9957         estimate D2E/DX2                !
 ! A89   A(48,46,51)           133.2598         estimate D2E/DX2                !
 ! A90   A(44,47,52)           117.8655         estimate D2E/DX2                !
 ! A91   A(44,47,53)           121.6776         estimate D2E/DX2                !
 ! A92   A(52,47,53)           120.4554         estimate D2E/DX2                !
 ! A93   A(44,48,46)           106.7396         estimate D2E/DX2                !
 ! A94   A(44,48,54)           119.9947         estimate D2E/DX2                !
 ! A95   A(46,48,54)           133.2597         estimate D2E/DX2                !
 ! A96   A(45,49,55)           123.014          estimate D2E/DX2                !
 ! A97   A(45,49,56)           117.919          estimate D2E/DX2                !
 ! A98   A(55,49,56)           119.0669         estimate D2E/DX2                !
 ! A99   A(46,51,55)           120.3275         estimate D2E/DX2                !
 ! A100  A(46,51,57)           118.7462         estimate D2E/DX2                !
 ! A101  A(55,51,57)           120.9256         estimate D2E/DX2                !
 ! A102  A(47,52,58)           123.0141         estimate D2E/DX2                !
 ! A103  A(47,52,59)           117.9198         estimate D2E/DX2                !
 ! A104  A(58,52,59)           119.066          estimate D2E/DX2                !
 ! A105  A(48,54,58)           120.3289         estimate D2E/DX2                !
 ! A106  A(48,54,60)           118.7439         estimate D2E/DX2                !
 ! A107  A(58,54,60)           120.9265         estimate D2E/DX2                !
 ! A108  A(49,55,51)           118.0668         estimate D2E/DX2                !
 ! A109  A(49,55,63)           119.1541         estimate D2E/DX2                !
 ! A110  A(51,55,63)           122.7787         estimate D2E/DX2                !
 ! A111  A(52,58,54)           118.0659         estimate D2E/DX2                !
 ! A112  A(52,58,62)           119.156          estimate D2E/DX2                !
 ! A113  A(54,58,62)           122.7777         estimate D2E/DX2                !
 ! A114  A(40,61,43)           125.9494         estimate D2E/DX2                !
 ! A115  A(40,61,44)           125.9316         estimate D2E/DX2                !
 ! A116  A(43,61,44)           108.1188         estimate D2E/DX2                !
 ! A117  A(58,62,76)           109.4462         estimate D2E/DX2                !
 ! A118  A(58,62,80)           111.9331         estimate D2E/DX2                !
 ! A119  A(58,62,84)           109.3349         estimate D2E/DX2                !
 ! A120  A(76,62,80)           108.4802         estimate D2E/DX2                !
 ! A121  A(76,62,84)           109.1239         estimate D2E/DX2                !
 ! A122  A(80,62,84)           108.4759         estimate D2E/DX2                !
 ! A123  A(55,63,64)           109.4357         estimate D2E/DX2                !
 ! A124  A(55,63,68)           111.9338         estimate D2E/DX2                !
 ! A125  A(55,63,72)           109.3429         estimate D2E/DX2                !
 ! A126  A(64,63,68)           108.4838         estimate D2E/DX2                !
 ! A127  A(64,63,72)           109.1233         estimate D2E/DX2                !
 ! A128  A(68,63,72)           108.4746         estimate D2E/DX2                !
 ! A129  A(63,64,65)           110.665          estimate D2E/DX2                !
 ! A130  A(63,64,66)           112.1328         estimate D2E/DX2                !
 ! A131  A(63,64,67)           111.4155         estimate D2E/DX2                !
 ! A132  A(65,64,66)           107.2371         estimate D2E/DX2                !
 ! A133  A(65,64,67)           107.5689         estimate D2E/DX2                !
 ! A134  A(66,64,67)           107.6016         estimate D2E/DX2                !
 ! A135  A(63,68,69)           110.0751         estimate D2E/DX2                !
 ! A136  A(63,68,70)           112.1673         estimate D2E/DX2                !
 ! A137  A(63,68,71)           112.1516         estimate D2E/DX2                !
 ! A138  A(69,68,70)           107.2195         estimate D2E/DX2                !
 ! A139  A(69,68,71)           107.2309         estimate D2E/DX2                !
 ! A140  A(70,68,71)           107.7469         estimate D2E/DX2                !
 ! A141  A(63,72,73)           111.4227         estimate D2E/DX2                !
 ! A142  A(63,72,74)           112.1156         estimate D2E/DX2                !
 ! A143  A(63,72,75)           110.6727         estimate D2E/DX2                !
 ! A144  A(73,72,74)           107.5991         estimate D2E/DX2                !
 ! A145  A(73,72,75)           107.5651         estimate D2E/DX2                !
 ! A146  A(74,72,75)           107.2459         estimate D2E/DX2                !
 ! A147  A(62,76,77)           110.6607         estimate D2E/DX2                !
 ! A148  A(62,76,78)           112.1393         estimate D2E/DX2                !
 ! A149  A(62,76,79)           111.4181         estimate D2E/DX2                !
 ! A150  A(77,76,78)           107.2308         estimate D2E/DX2                !
 ! A151  A(77,76,79)           107.5687         estimate D2E/DX2                !
 ! A152  A(78,76,79)           107.6028         estimate D2E/DX2                !
 ! A153  A(62,80,81)           112.1548         estimate D2E/DX2                !
 ! A154  A(62,80,82)           110.0752         estimate D2E/DX2                !
 ! A155  A(62,80,83)           112.1631         estimate D2E/DX2                !
 ! A156  A(81,80,82)           107.2273         estimate D2E/DX2                !
 ! A157  A(81,80,83)           107.7466         estimate D2E/DX2                !
 ! A158  A(82,80,83)           107.2245         estimate D2E/DX2                !
 ! A159  A(62,84,85)           111.4188         estimate D2E/DX2                !
 ! A160  A(62,84,86)           112.1135         estimate D2E/DX2                !
 ! A161  A(62,84,87)           110.6764         estimate D2E/DX2                !
 ! A162  A(85,84,86)           107.5971         estimate D2E/DX2                !
 ! A163  A(85,84,87)           107.564          estimate D2E/DX2                !
 ! A164  A(86,84,87)           107.2515         estimate D2E/DX2                !
 ! A165  L(30,1,31,8,-1)       180.0046         estimate D2E/DX2                !
 ! A166  L(1,31,32,16,-1)      180.004          estimate D2E/DX2                !
 ! A167  L(31,32,33,29,-1)     179.9873         estimate D2E/DX2                !
 ! A168  L(30,1,31,8,-2)       179.8301         estimate D2E/DX2                !
 ! A169  L(1,31,32,16,-2)      179.7285         estimate D2E/DX2                !
 ! A170  L(31,32,33,29,-2)     180.1288         estimate D2E/DX2                !
 ! D1    D(22,1,8,7)            -0.1046         estimate D2E/DX2                !
 ! D2    D(22,1,8,9)           179.9427         estimate D2E/DX2                !
 ! D3    D(30,1,8,7)            -0.0262         estimate D2E/DX2                !
 ! D4    D(30,1,8,9)          -179.9789         estimate D2E/DX2                !
 ! D5    D(31,1,8,7)          -179.8563         estimate D2E/DX2                !
 ! D6    D(31,1,8,9)             0.191          estimate D2E/DX2                !
 ! D7    D(8,1,22,20)            0.0414         estimate D2E/DX2                !
 ! D8    D(8,1,22,25)         -179.8364         estimate D2E/DX2                !
 ! D9    D(30,1,22,20)          -0.0369         estimate D2E/DX2                !
 ! D10   D(30,1,22,25)        -179.9148         estimate D2E/DX2                !
 ! D11   D(31,1,22,20)         179.7931         estimate D2E/DX2                !
 ! D12   D(31,1,22,25)          -0.0847         estimate D2E/DX2                !
 ! D13   D(8,1,30,2)             0.0513         estimate D2E/DX2                !
 ! D14   D(8,1,30,3)          -179.9518         estimate D2E/DX2                !
 ! D15   D(22,1,30,2)         -179.9751         estimate D2E/DX2                !
 ! D16   D(22,1,30,3)            0.0218         estimate D2E/DX2                !
 ! D17   D(8,1,33,34)          -47.8539         estimate D2E/DX2                !
 ! D18   D(8,1,33,35)          131.9278         estimate D2E/DX2                !
 ! D19   D(22,1,33,34)         132.2953         estimate D2E/DX2                !
 ! D20   D(22,1,33,35)         -47.923          estimate D2E/DX2                !
 ! D21   D(2,30,33,34)         -47.8269         estimate D2E/DX2                !
 ! D22   D(2,30,33,35)         131.8693         estimate D2E/DX2                !
 ! D23   D(3,30,33,34)         132.428          estimate D2E/DX2                !
 ! D24   D(3,30,33,35)         -47.8758         estimate D2E/DX2                !
 ! D25   D(7,2,6,5)           -179.9287         estimate D2E/DX2                !
 ! D26   D(7,2,6,15)             0.0627         estimate D2E/DX2                !
 ! D27   D(30,2,6,5)             0.06           estimate D2E/DX2                !
 ! D28   D(30,2,6,15)         -179.9486         estimate D2E/DX2                !
 ! D29   D(6,2,7,8)           -179.9713         estimate D2E/DX2                !
 ! D30   D(6,2,7,12)             0.0331         estimate D2E/DX2                !
 ! D31   D(30,2,7,8)             0.0397         estimate D2E/DX2                !
 ! D32   D(30,2,7,12)         -179.956          estimate D2E/DX2                !
 ! D33   D(6,2,30,1)           179.946          estimate D2E/DX2                !
 ! D34   D(6,2,30,3)            -0.0507         estimate D2E/DX2                !
 ! D35   D(7,2,30,1)            -0.0639         estimate D2E/DX2                !
 ! D36   D(7,2,30,3)           179.9395         estimate D2E/DX2                !
 ! D37   D(20,3,4,5)          -179.9511         estimate D2E/DX2                !
 ! D38   D(20,3,4,13)            0.0151         estimate D2E/DX2                !
 ! D39   D(30,3,4,5)             0.0487         estimate D2E/DX2                !
 ! D40   D(30,3,4,13)         -179.985          estimate D2E/DX2                !
 ! D41   D(4,3,20,21)           -0.0675         estimate D2E/DX2                !
 ! D42   D(4,3,20,22)          179.9666         estimate D2E/DX2                !
 ! D43   D(30,3,20,21)         179.9326         estimate D2E/DX2                !
 ! D44   D(30,3,20,22)          -0.0332         estimate D2E/DX2                !
 ! D45   D(4,3,30,1)           179.9987         estimate D2E/DX2                !
 ! D46   D(4,3,30,2)            -0.0046         estimate D2E/DX2                !
 ! D47   D(20,3,30,1)           -0.0014         estimate D2E/DX2                !
 ! D48   D(20,3,30,2)          179.9953         estimate D2E/DX2                !
 ! D49   D(3,4,5,6)             -0.0377         estimate D2E/DX2                !
 ! D50   D(3,4,5,14)           179.9618         estimate D2E/DX2                !
 ! D51   D(13,4,5,6)           179.9961         estimate D2E/DX2                !
 ! D52   D(13,4,5,14)           -0.0044         estimate D2E/DX2                !
 ! D53   D(4,5,6,2)             -0.0173         estimate D2E/DX2                !
 ! D54   D(4,5,6,15)           179.9913         estimate D2E/DX2                !
 ! D55   D(14,5,6,2)           179.9832         estimate D2E/DX2                !
 ! D56   D(14,5,6,15)           -0.0082         estimate D2E/DX2                !
 ! D57   D(2,7,8,1)              0.0017         estimate D2E/DX2                !
 ! D58   D(2,7,8,9)            179.9611         estimate D2E/DX2                !
 ! D59   D(12,7,8,1)           179.9974         estimate D2E/DX2                !
 ! D60   D(12,7,8,9)            -0.0431         estimate D2E/DX2                !
 ! D61   D(2,7,12,11)         -179.9646         estimate D2E/DX2                !
 ! D62   D(2,7,12,19)            0.014          estimate D2E/DX2                !
 ! D63   D(8,7,12,11)            0.0399         estimate D2E/DX2                !
 ! D64   D(8,7,12,19)         -179.9816         estimate D2E/DX2                !
 ! D65   D(1,8,9,10)           179.9638         estimate D2E/DX2                !
 ! D66   D(1,8,9,16)            -0.0233         estimate D2E/DX2                !
 ! D67   D(7,8,9,10)             0.0141         estimate D2E/DX2                !
 ! D68   D(7,8,9,16)          -179.9729         estimate D2E/DX2                !
 ! D69   D(8,9,10,11)            0.0184         estimate D2E/DX2                !
 ! D70   D(8,9,10,17)         -179.9857         estimate D2E/DX2                !
 ! D71   D(16,9,10,11)        -179.9944         estimate D2E/DX2                !
 ! D72   D(16,9,10,17)           0.0014         estimate D2E/DX2                !
 ! D73   D(9,10,11,12)          -0.0223         estimate D2E/DX2                !
 ! D74   D(9,10,11,18)         179.9865         estimate D2E/DX2                !
 ! D75   D(17,10,11,12)        179.9819         estimate D2E/DX2                !
 ! D76   D(17,10,11,18)         -0.0094         estimate D2E/DX2                !
 ! D77   D(10,11,12,7)          -0.0069         estimate D2E/DX2                !
 ! D78   D(10,11,12,19)       -179.9856         estimate D2E/DX2                !
 ! D79   D(18,11,12,7)         179.9844         estimate D2E/DX2                !
 ! D80   D(18,11,12,19)          0.0057         estimate D2E/DX2                !
 ! D81   D(3,20,21,23)        -179.9477         estimate D2E/DX2                !
 ! D82   D(3,20,21,24)           0.0325         estimate D2E/DX2                !
 ! D83   D(22,20,21,23)          0.0172         estimate D2E/DX2                !
 ! D84   D(22,20,21,24)        179.9975         estimate D2E/DX2                !
 ! D85   D(3,20,22,1)            0.0489         estimate D2E/DX2                !
 ! D86   D(3,20,22,25)         179.9442         estimate D2E/DX2                !
 ! D87   D(21,20,22,1)        -179.9177         estimate D2E/DX2                !
 ! D88   D(21,20,22,25)         -0.0224         estimate D2E/DX2                !
 ! D89   D(20,21,23,26)         -0.0022         estimate D2E/DX2                !
 ! D90   D(20,21,23,27)        179.9851         estimate D2E/DX2                !
 ! D91   D(24,21,23,26)       -179.9826         estimate D2E/DX2                !
 ! D92   D(24,21,23,27)          0.0047         estimate D2E/DX2                !
 ! D93   D(1,22,25,26)         179.8827         estimate D2E/DX2                !
 ! D94   D(1,22,25,28)          -0.0878         estimate D2E/DX2                !
 ! D95   D(20,22,25,26)          0.0129         estimate D2E/DX2                !
 ! D96   D(20,22,25,28)       -179.9577         estimate D2E/DX2                !
 ! D97   D(21,23,26,25)         -0.0075         estimate D2E/DX2                !
 ! D98   D(21,23,26,29)        179.9825         estimate D2E/DX2                !
 ! D99   D(27,23,26,25)       -179.9947         estimate D2E/DX2                !
 ! D100  D(27,23,26,29)         -0.0047         estimate D2E/DX2                !
 ! D101  D(22,25,26,23)          0.0019         estimate D2E/DX2                !
 ! D102  D(22,25,26,29)       -179.9881         estimate D2E/DX2                !
 ! D103  D(28,25,26,23)        179.9728         estimate D2E/DX2                !
 ! D104  D(28,25,26,29)         -0.0173         estimate D2E/DX2                !
 ! D105  D(32,33,34,36)       -179.6094         estimate D2E/DX2                !
 ! D106  D(32,33,34,37)         -0.5891         estimate D2E/DX2                !
 ! D107  D(35,33,34,36)          0.4579         estimate D2E/DX2                !
 ! D108  D(35,33,34,37)        179.4782         estimate D2E/DX2                !
 ! D109  D(32,33,35,38)       -179.3964         estimate D2E/DX2                !
 ! D110  D(32,33,35,39)         -0.4346         estimate D2E/DX2                !
 ! D111  D(34,33,35,38)          0.5363         estimate D2E/DX2                !
 ! D112  D(34,33,35,39)        179.4981         estimate D2E/DX2                !
 ! D113  D(33,34,36,40)         -0.9907         estimate D2E/DX2                !
 ! D114  D(33,34,36,41)        178.1705         estimate D2E/DX2                !
 ! D115  D(37,34,36,40)        179.9914         estimate D2E/DX2                !
 ! D116  D(37,34,36,41)         -0.8474         estimate D2E/DX2                !
 ! D117  D(33,35,38,40)         -0.9982         estimate D2E/DX2                !
 ! D118  D(33,35,38,42)        178.1112         estimate D2E/DX2                !
 ! D119  D(39,35,38,40)       -179.9574         estimate D2E/DX2                !
 ! D120  D(39,35,38,42)         -0.8479         estimate D2E/DX2                !
 ! D121  D(34,36,40,38)          0.5258         estimate D2E/DX2                !
 ! D122  D(34,36,40,61)       -179.4328         estimate D2E/DX2                !
 ! D123  D(41,36,40,38)       -178.6371         estimate D2E/DX2                !
 ! D124  D(41,36,40,61)          1.4043         estimate D2E/DX2                !
 ! D125  D(35,38,40,36)          0.4608         estimate D2E/DX2                !
 ! D126  D(35,38,40,61)       -179.5806         estimate D2E/DX2                !
 ! D127  D(42,38,40,36)       -178.6503         estimate D2E/DX2                !
 ! D128  D(42,38,40,61)          1.3082         estimate D2E/DX2                !
 ! D129  D(36,40,61,43)       -131.9458         estimate D2E/DX2                !
 ! D130  D(36,40,61,44)         48.2641         estimate D2E/DX2                !
 ! D131  D(38,40,61,43)         48.0961         estimate D2E/DX2                !
 ! D132  D(38,40,61,44)       -131.694          estimate D2E/DX2                !
 ! D133  D(46,43,45,49)          1.2038         estimate D2E/DX2                !
 ! D134  D(46,43,45,50)       -178.3546         estimate D2E/DX2                !
 ! D135  D(61,43,45,49)        178.5251         estimate D2E/DX2                !
 ! D136  D(61,43,45,50)         -1.0333         estimate D2E/DX2                !
 ! D137  D(45,43,46,48)        177.9209         estimate D2E/DX2                !
 ! D138  D(45,43,46,51)         -1.3312         estimate D2E/DX2                !
 ! D139  D(61,43,46,48)          0.0923         estimate D2E/DX2                !
 ! D140  D(61,43,46,51)       -179.1598         estimate D2E/DX2                !
 ! D141  D(45,43,61,40)          2.5826         estimate D2E/DX2                !
 ! D142  D(45,43,61,44)       -177.5962         estimate D2E/DX2                !
 ! D143  D(46,43,61,40)       -179.8558         estimate D2E/DX2                !
 ! D144  D(46,43,61,44)         -0.0346         estimate D2E/DX2                !
 ! D145  D(48,44,47,52)          1.192          estimate D2E/DX2                !
 ! D146  D(48,44,47,53)       -178.3705         estimate D2E/DX2                !
 ! D147  D(61,44,47,52)        178.5025         estimate D2E/DX2                !
 ! D148  D(61,44,47,53)         -1.06           estimate D2E/DX2                !
 ! D149  D(47,44,48,46)        177.9148         estimate D2E/DX2                !
 ! D150  D(47,44,48,54)         -1.3107         estimate D2E/DX2                !
 ! D151  D(61,44,48,46)          0.0948         estimate D2E/DX2                !
 ! D152  D(61,44,48,54)       -179.1306         estimate D2E/DX2                !
 ! D153  D(47,44,61,40)          2.2306         estimate D2E/DX2                !
 ! D154  D(47,44,61,43)       -177.5906         estimate D2E/DX2                !
 ! D155  D(48,44,61,40)        179.7824         estimate D2E/DX2                !
 ! D156  D(48,44,61,43)         -0.0388         estimate D2E/DX2                !
 ! D157  D(43,45,49,55)         -0.1859         estimate D2E/DX2                !
 ! D158  D(43,45,49,56)        179.9212         estimate D2E/DX2                !
 ! D159  D(50,45,49,55)        179.3781         estimate D2E/DX2                !
 ! D160  D(50,45,49,56)         -0.5148         estimate D2E/DX2                !
 ! D161  D(43,46,48,44)         -0.1134         estimate D2E/DX2                !
 ! D162  D(43,46,48,54)        178.9655         estimate D2E/DX2                !
 ! D163  D(51,46,48,44)        178.9972         estimate D2E/DX2                !
 ! D164  D(51,46,48,54)         -1.9239         estimate D2E/DX2                !
 ! D165  D(43,46,51,55)          0.402          estimate D2E/DX2                !
 ! D166  D(43,46,51,57)       -179.8905         estimate D2E/DX2                !
 ! D167  D(48,46,51,55)       -178.6145         estimate D2E/DX2                !
 ! D168  D(48,46,51,57)          1.093          estimate D2E/DX2                !
 ! D169  D(44,47,52,58)         -0.1929         estimate D2E/DX2                !
 ! D170  D(44,47,52,59)        179.9157         estimate D2E/DX2                !
 ! D171  D(53,47,52,58)        179.3752         estimate D2E/DX2                !
 ! D172  D(53,47,52,59)         -0.5162         estimate D2E/DX2                !
 ! D173  D(44,48,54,58)          0.3917         estimate D2E/DX2                !
 ! D174  D(44,48,54,60)       -179.9059         estimate D2E/DX2                !
 ! D175  D(46,48,54,58)       -178.5898         estimate D2E/DX2                !
 ! D176  D(46,48,54,60)          1.1126         estimate D2E/DX2                !
 ! D177  D(45,49,55,51)         -0.7082         estimate D2E/DX2                !
 ! D178  D(45,49,55,63)        179.5256         estimate D2E/DX2                !
 ! D179  D(56,49,55,51)        179.1835         estimate D2E/DX2                !
 ! D180  D(56,49,55,63)         -0.5828         estimate D2E/DX2                !
 ! D181  D(46,51,55,49)          0.5849         estimate D2E/DX2                !
 ! D182  D(46,51,55,63)       -179.6579         estimate D2E/DX2                !
 ! D183  D(57,51,55,49)       -179.1161         estimate D2E/DX2                !
 ! D184  D(57,51,55,63)          0.6411         estimate D2E/DX2                !
 ! D185  D(47,52,58,54)         -0.6913         estimate D2E/DX2                !
 ! D186  D(47,52,58,62)        179.5179         estimate D2E/DX2                !
 ! D187  D(59,52,58,54)        179.1988         estimate D2E/DX2                !
 ! D188  D(59,52,58,62)         -0.5919         estimate D2E/DX2                !
 ! D189  D(48,54,58,52)          0.5771         estimate D2E/DX2                !
 ! D190  D(48,54,58,62)       -179.6402         estimate D2E/DX2                !
 ! D191  D(60,54,58,52)       -179.1187         estimate D2E/DX2                !
 ! D192  D(60,54,58,62)          0.664          estimate D2E/DX2                !
 ! D193  D(49,55,63,64)         59.5508         estimate D2E/DX2                !
 ! D194  D(49,55,63,68)        179.8502         estimate D2E/DX2                !
 ! D195  D(49,55,63,72)        -59.9244         estimate D2E/DX2                !
 ! D196  D(51,55,63,64)       -120.2039         estimate D2E/DX2                !
 ! D197  D(51,55,63,68)          0.0955         estimate D2E/DX2                !
 ! D198  D(51,55,63,72)        120.3209         estimate D2E/DX2                !
 ! D199  D(52,58,62,76)         59.4338         estimate D2E/DX2                !
 ! D200  D(52,58,62,80)        179.7351         estimate D2E/DX2                !
 ! D201  D(52,58,62,84)        -60.0436         estimate D2E/DX2                !
 ! D202  D(54,58,62,76)       -120.3466         estimate D2E/DX2                !
 ! D203  D(54,58,62,80)         -0.0453         estimate D2E/DX2                !
 ! D204  D(54,58,62,84)        120.176          estimate D2E/DX2                !
 ! D205  D(58,62,76,77)       -179.842          estimate D2E/DX2                !
 ! D206  D(58,62,76,78)        -60.159          estimate D2E/DX2                !
 ! D207  D(58,62,76,79)         60.525          estimate D2E/DX2                !
 ! D208  D(80,62,76,77)         57.7697         estimate D2E/DX2                !
 ! D209  D(80,62,76,78)        177.4527         estimate D2E/DX2                !
 ! D210  D(80,62,76,79)        -61.8633         estimate D2E/DX2                !
 ! D211  D(84,62,76,77)        -60.2348         estimate D2E/DX2                !
 ! D212  D(84,62,76,78)         59.4482         estimate D2E/DX2                !
 ! D213  D(84,62,76,79)       -179.8678         estimate D2E/DX2                !
 ! D214  D(58,62,80,81)         60.6128         estimate D2E/DX2                !
 ! D215  D(58,62,80,82)        179.9049         estimate D2E/DX2                !
 ! D216  D(58,62,80,83)        -60.8013         estimate D2E/DX2                !
 ! D217  D(76,62,80,81)       -178.5242         estimate D2E/DX2                !
 ! D218  D(76,62,80,82)        -59.2321         estimate D2E/DX2                !
 ! D219  D(76,62,80,83)         60.0617         estimate D2E/DX2                !
 ! D220  D(84,62,80,81)        -60.1085         estimate D2E/DX2                !
 ! D221  D(84,62,80,82)         59.1836         estimate D2E/DX2                !
 ! D222  D(84,62,80,83)        178.4774         estimate D2E/DX2                !
 ! D223  D(58,62,84,85)        -60.4611         estimate D2E/DX2                !
 ! D224  D(58,62,84,86)         60.198          estimate D2E/DX2                !
 ! D225  D(58,62,84,87)        179.9009         estimate D2E/DX2                !
 ! D226  D(76,62,84,85)        179.8629         estimate D2E/DX2                !
 ! D227  D(76,62,84,86)        -59.478          estimate D2E/DX2                !
 ! D228  D(76,62,84,87)         60.2249         estimate D2E/DX2                !
 ! D229  D(80,62,84,85)         61.8557         estimate D2E/DX2                !
 ! D230  D(80,62,84,86)       -177.4852         estimate D2E/DX2                !
 ! D231  D(80,62,84,87)        -57.7823         estimate D2E/DX2                !
 ! D232  D(55,63,64,65)       -179.7973         estimate D2E/DX2                !
 ! D233  D(55,63,64,66)        -60.1077         estimate D2E/DX2                !
 ! D234  D(55,63,64,67)         60.5683         estimate D2E/DX2                !
 ! D235  D(68,63,64,65)         57.8177         estimate D2E/DX2                !
 ! D236  D(68,63,64,66)        177.5073         estimate D2E/DX2                !
 ! D237  D(68,63,64,67)        -61.8167         estimate D2E/DX2                !
 ! D238  D(72,63,64,65)        -60.1869         estimate D2E/DX2                !
 ! D239  D(72,63,64,66)         59.5027         estimate D2E/DX2                !
 ! D240  D(72,63,64,67)       -179.8213         estimate D2E/DX2                !
 ! D241  D(55,63,68,69)        179.8814         estimate D2E/DX2                !
 ! D242  D(55,63,68,70)        -60.8282         estimate D2E/DX2                !
 ! D243  D(55,63,68,71)         60.587          estimate D2E/DX2                !
 ! D244  D(64,63,68,69)        -59.2657         estimate D2E/DX2                !
 ! D245  D(64,63,68,70)         60.0247         estimate D2E/DX2                !
 ! D246  D(64,63,68,71)       -178.5601         estimate D2E/DX2                !
 ! D247  D(72,63,68,69)         59.1506         estimate D2E/DX2                !
 ! D248  D(72,63,68,70)        178.4409         estimate D2E/DX2                !
 ! D249  D(72,63,68,71)        -60.1438         estimate D2E/DX2                !
 ! D250  D(55,63,72,73)        -60.4153         estimate D2E/DX2                !
 ! D251  D(55,63,72,74)         60.2506         estimate D2E/DX2                !
 ! D252  D(55,63,72,75)        179.9452         estimate D2E/DX2                !
 ! D253  D(64,63,72,73)        179.9169         estimate D2E/DX2                !
 ! D254  D(64,63,72,74)        -59.4172         estimate D2E/DX2                !
 ! D255  D(64,63,72,75)         60.2774         estimate D2E/DX2                !
 ! D256  D(68,63,72,73)         61.9065         estimate D2E/DX2                !
 ! D257  D(68,63,72,74)       -177.4276         estimate D2E/DX2                !
 ! D258  D(68,63,72,75)        -57.733          estimate D2E/DX2                !
 --------------------------------------------------------------------------------
 Trust Radius=3.00D-01 FncErr=5.00D-06 GrdErr=5.00D-06 EigMax=2.50D+02 EigMin=1.00D-04
 Number of steps in this run=    522 maximum allowed number of steps=    522.
 GradGradGradGradGradGradGradGradGradGradGradGradGradGradGradGradGradGrad

 Leave Link  103 at Thu Oct 19 12:09:08 2023, MaxMem=  1887436800 cpu:               0.4 elap:               0.0
 (Enter /share/apps/g16/E6B-113X_avx2/g16/l202.exe)
 Symmetry turned off by external request.
 Stoichiometry    C45H39AuN2
                          Input orientation:                          
 ---------------------------------------------------------------------
 Center     Atomic      Atomic             Coordinates (Angstroms)
 Number     Number       Type             X           Y           Z
 ---------------------------------------------------------------------
      1         79           0       -4.555995   -0.000427   -0.008287
      2          6           0       -7.225848    1.199537    0.018621
      3          6           0       -7.226577   -1.198852    0.013416
      4          6           0       -8.624381   -1.213240    0.026151
      5          6           0       -9.308608    0.000928    0.034045
      6          6           0       -8.623654    1.214708    0.030230
      7          6           0       -6.312798    2.350801    0.014265
      8          6           0       -4.912523    2.083969    0.001303
      9          6           0       -4.031088    3.163610   -0.003832
     10          6           0       -4.505103    4.480779    0.003826
     11          6           0       -5.877153    4.734605    0.017198
     12          6           0       -6.779519    3.673771    0.022489
     13          1           0       -9.167039   -2.158568    0.029264
     14          1           0      -10.400469    0.001242    0.043374
     15          1           0       -9.165750    2.160347    0.036315
     16          1           0       -2.950723    2.987913   -0.014208
     17          1           0       -3.796942    5.314011   -0.000624
     18          1           0       -6.246484    5.762584    0.023392
     19          1           0       -7.853432    3.878166    0.032733
     20          6           0       -6.314259   -2.350643    0.002535
     21          6           0       -6.781828   -3.673333    0.005279
     22          6           0       -4.913829   -2.084643   -0.010403
     23          6           0       -5.880144   -4.734715   -0.004263
     24          1           0       -7.855863   -3.877088    0.015243
     25          6           0       -4.033086   -3.164822   -0.019654
     26          6           0       -4.507932   -4.481713   -0.016632
     27          1           0       -6.250129   -5.762476   -0.001823
     28          1           0       -2.952602   -2.989779   -0.028963
     29          1           0       -3.800295   -5.315370   -0.023832
     30          7           0       -6.602943    0.000164    0.010370
     31          6           0       -2.578412   -0.001177   -0.020531
     32          6           0       -1.348013   -0.001739   -0.022364
     33          6           0        0.076798   -0.002706   -0.021578
     34          6           0        0.805083    0.810030   -0.914697
     35          6           0        0.801427   -0.816013    0.874061
     36          6           0        2.193492    0.802827   -0.919101
     37          1           0        0.266532    1.442358   -1.623891
     38          6           0        2.189720   -0.808726    0.884407
     39          1           0        0.259889   -1.448151    1.581150
     40          6           0        2.900062   -0.002657   -0.015614
     41          1           0        2.739175    1.416801   -1.638470
     42          1           0        2.732239   -1.422469    1.606351
     43          6           0        5.130036   -1.129690   -0.006190
     44          6           0        5.127945    1.128135   -0.007657
     45          6           0        4.793803   -2.485143   -0.052034
     46          6           0        6.484904   -0.720825    0.000188
     47          6           0        4.788704    2.482946    0.034577
     48          6           0        6.483557    0.721776    0.000964
     49          6           0        5.830476   -3.411862   -0.065063
     50          1           0        3.754226   -2.817253   -0.084273
     51          6           0        7.506910   -1.680816   -0.011540
     52          6           0        5.823444    3.411588    0.059449
     53          1           0        3.748208    2.813094    0.055048
     54          6           0        7.503566    1.683661    0.024557
     55          6           0        7.195633   -3.041708   -0.037983
     56          1           0        5.568281   -4.473061   -0.099610
     57          1           0        8.545243   -1.342626   -0.004498
     58          6           0        7.189502    3.043972    0.047887
     59          1           0        5.558921    4.472294    0.091089
     60          1           0        8.542526    1.347366    0.029256
     61          7           0        4.310586   -0.001556   -0.011423
     62          6           0        8.256978    4.140623    0.066158
     63          6           0        8.265248   -4.136407   -0.044206
     64          6           0        8.115876   -4.988260   -1.309726
     65          1           0        8.874574   -5.785728   -1.333078
     66          1           0        7.130760   -5.473813   -1.368506
     67          1           0        8.242968   -4.382004   -2.219600
     68          6           0        9.675633   -3.555279   -0.015993
     69          1           0       10.418360   -4.366524   -0.019095
     70          1           0        9.881292   -2.922067   -0.891856
     71          1           0        9.857216   -2.950612    0.885034
     72          6           0        8.083632   -5.030750    1.187503
     73          1           0        8.185241   -4.455574    2.120484
     74          1           0        7.097993   -5.518637    1.203274
     75          1           0        8.842778   -5.827984    1.204308
     76          6           0        8.090092    4.994240    1.328307
     77          1           0        8.847596    5.792538    1.360322
     78          1           0        7.103854    5.478952    1.373456
     79          1           0        8.205889    4.389552    2.240727
     80          6           0        9.668647    3.562003    0.056833
     81          1           0        9.863023    2.956716   -0.841099
     82          1           0       10.409823    4.374585    0.068648
     83          1           0        9.863992    2.930069    0.935983
     84          6           0        8.089411    5.032654   -1.169209
     85          1           0        8.204802    4.456278   -2.099844
     86          1           0        7.102782    5.517908   -1.198779
     87          1           0        8.846698    5.831795   -1.177278
 ---------------------------------------------------------------------
 Rotational constants (GHZ):           0.0931831           0.0176871           0.0150069
 Leave Link  202 at Thu Oct 19 12:09:08 2023, MaxMem=  1887436800 cpu:               0.1 elap:               0.0
 (Enter /share/apps/g16/E6B-113X_avx2/g16/l301.exe)
 Standard basis: def2SVP (5D, 7F)
 Ernie: Thresh=  0.10000D-02 Tol=  0.10000D-05 Strict=F.
   885 basis functions,  1513 primitive gaussians,   937 cartesian basis functions
   171 alpha electrons      171 beta electrons
       nuclear repulsion energy      5371.5820792337 Hartrees.
 IExCor=20419 DFT=T Ex+Corr=CAM-B3LYP ExCW=0 ScaHFX=  1.000000
 ScaDFX=  1.000000  1.000000  1.000000  0.810000 ScalE2=  1.000000  1.000000
 IRadAn=      5 IRanWt=     -1 IRanGd=            0 ICorTp=0 IEmpDi=141
 HFx  wShort=  0.000000 wLong=  0.330000 cFull=  0.190000 cShort=  0.000000 cLong=  0.460000
 DFx  wShort=  0.000000 wLong=  0.330000 cFull=  0.190000 cShort=  0.000000 cLong=  0.460000
 NAtoms=   87 NActive=   87 NUniq=   87 SFac= 1.00D+00 NAtFMM=   60 NAOKFM=T Big=T
 Integral buffers will be    131072 words long.
 Raffenetti 2 integral format.
 Two-electron integral symmetry is turned off.
 R6Disp:  Grimme-D3(BJ) Dispersion energy=       -0.1118135971 Hartrees.
 Nuclear repulsion after empirical dispersion term =     5371.4702656366 Hartrees.
 ------------------------------------------------------------------------------
 Polarizable Continuum Model (PCM)
 =================================
 Model                : PCM.
 Atomic radii         : SMD-Coulomb.
 Polarization charges : Total charges.
 Charge compensation  : None.
 Solution method      : On-the-fly selection.
 Cavity type          : VdW (van der Waals Surface) (Alpha=1.000).
 Cavity algorithm     : GePol (No added spheres)
                        Default sphere list used, NSphG=   87.
                        Lebedev-Laikov grids with approx.  5.0 points / Ang**2.
                        Smoothing algorithm: York/Karplus (Gamma=1.0000).
                        Polarization charges: spherical gaussians, with
                                              point-specific exponents (IZeta= 3).
                        Self-potential: point-specific (ISelfS= 7).
                        Self-field    : sphere-specific E.n sum rule (ISelfD= 2).
 1st derivatives      : Analytical E(r).r(x)/FMM algorithm (CHGder, D1EAlg=3).
                        Cavity 1st derivative terms included.
 Solvent              : Acetonitrile, Eps=  35.688000 Eps(inf)=   1.806874
 ------------------------------------------------------------------------------
 GePol: Number of generator spheres                  =      87
 GePol: Total number of spheres                      =      87
 GePol: Number of exposed spheres                    =      87 (100.00%)
 GePol: Number of points                             =    6467
 GePol: Average weight of points                     =       0.11
 GePol: Minimum weight of points                     =   0.98D-11
 GePol: Maximum weight of points                     =    0.18946
 GePol: Number of points with low weight             =     372
 GePol: Fraction of low-weight points (<1% of avg)   =       5.75%
 GePol: Cavity surface area                          =    685.778 Ang**2
 GePol: Cavity volume                                =    668.699 Ang**3
 ------------------------------------------------------------------------------
 Atomic radii for non-electrostatic terms: SMD-CDS.
 ------------------------------------------------------------------------------
 PCM non-electrostatic energy =        -0.0147301677 Hartrees.
 Nuclear repulsion after PCM non-electrostatic terms =     5371.4555354688 Hartrees.
 Leave Link  301 at Thu Oct 19 12:09:08 2023, MaxMem=  1887436800 cpu:               2.4 elap:               0.2
 (Enter /share/apps/g16/E6B-113X_avx2/g16/l302.exe)
 NPDir=0 NMtPBC=     1 NCelOv=     1 NCel=       1 NClECP=     1 NCelD=      1
         NCelK=      1 NCelE2=     1 NClLst=     1 CellRange=     0.0.
 One-electron integrals computed using PRISM.
   1 Symmetry operations used in ECPInt.
 ECPInt:  NShTT=   84666 NPrTT=  303772 LenC2=   49541 LenP2D=  113663.
 LDataN:  DoStor=T MaxTD1= 7 Len=  274
 NBasis=   885 RedAO= T EigKep=  2.08D-04  NBF=   885
 NBsUse=   885 1.00D-06 EigRej= -1.00D+00 NBFU=   885
 Precomputing XC quadrature grid using
 IXCGrd= 4 IRadAn=           5 IRanWt=          -1 IRanGd=           0 AccXCQ= 0.00D+00.
 Defaulting to unpruned grid for atomic number  79.
 Generated NRdTot=       0 NPtTot=           0 NUsed=           0 NTot=          32
 NSgBfM=   860   852   856   857   860 MxSgAt=    87 MxSgA2=    87.
 Leave Link  302 at Thu Oct 19 12:09:12 2023, MaxMem=  1887436800 cpu:              55.1 elap:               3.5
 (Enter /share/apps/g16/E6B-113X_avx2/g16/l303.exe)
 DipDrv:  MaxL=1.
 Leave Link  303 at Thu Oct 19 12:09:12 2023, MaxMem=  1887436800 cpu:               3.3 elap:               0.3
 (Enter /share/apps/g16/E6B-113X_avx2/g16/l401.exe)
 ExpMin= 4.89D-02 ExpMax= 1.71D+03 ExpMxC= 2.58D+02 IAcc=3 IRadAn=         5 AccDes= 0.00D+00
 Harris functional with IExCor=20419 and IRadAn=       5 diagonalized for initial guess.
 HarFok:  IExCor=20419 AccDes= 0.00D+00 IRadAn=         5 IDoV= 1 UseB2=F ITyADJ=14
 ICtDFT=  3500011 ScaDFX=  1.000000  1.000000  1.000000  1.000000
 Defaulting to unpruned grid for atomic number  79.
 FoFCou: FMM=F IPFlag=           0 FMFlag=      100000 FMFlg1=        2001
         NFxFlg=           0 DoJE=T BraDBF=F KetDBF=T FulRan=T
         wScrn=  0.000000 ICntrl=       500 IOpCl=  0 I1Cent=   200000004 NGrid=           0
         NMat0=    1 NMatS0=      1 NMatT0=    0 NMatD0=    1 NMtDS0=    0 NMtDT0=    0
 Symmetry not used in FoFCou.
 Harris En= -1902.41259137557    
 JPrj=0 DoOrth=F DoCkMO=F.
 Leave Link  401 at Thu Oct 19 12:09:23 2023, MaxMem=  1887436800 cpu:             170.4 elap:              10.7
 (Enter /share/apps/g16/E6B-113X_avx2/g16/l502.exe)
 Two-electron integral symmetry not used.
 Closed shell SCF:
 Using DIIS extrapolation, IDIIS=  1040.
 NGot=  1887436800 LenX=  1885658316 LenY=  1884779410
 Requested convergence on RMS density matrix=1.00D-08 within 128 cycles.
 Requested convergence on MAX density matrix=1.00D-06.
 Requested convergence on             energy=1.00D-06.
 No special actions if energy rises.
 Fock matrices will be formed incrementally for  20 cycles.

 Cycle   1  Pass 1  IDiag  1:
 FoFJK:  IHMeth= 1 ICntrl=       0 DoSepK=T KAlg= 0 I1Cent=           0 FoldK=F
 IRaf=         1 NMat=       1 IRICut=       1 DoRegI=T DoRafI=F ISym2E= 0 IDoP0=0 IntGTp=1.
 FoFCou: FMM=T IPFlag=           0 FMFlag=      100000 FMFlg1=        2001
         NFxFlg=           0 DoJE=T BraDBF=F KetDBF=F FulRan=T
         wScrn=  0.000000 ICntrl=       500 IOpCl=  0 I1Cent=           0 NGrid=           0
         NMat0=    1 NMatS0=      1 NMatT0=    0 NMatD0=    1 NMtDS0=    0 NMtDT0=    0
 Symmetry not used in FoFCou.
 FMM levels:  10  Number of levels for PrismC:   9
 Defaulting to unpruned grid for atomic number  79.
 Defaulting to unpruned grid for atomic number  79.
 Defaulting to unpruned grid for atomic number  79.
 Defaulting to unpruned grid for atomic number  79.
 Defaulting to unpruned grid for atomic number  79.
 Defaulting to unpruned grid for atomic number  79.
 Defaulting to unpruned grid for atomic number  79.
 Defaulting to unpruned grid for atomic number  79.
 Defaulting to unpruned grid for atomic number  79.
 Defaulting to unpruned grid for atomic number  79.
 Defaulting to unpruned grid for atomic number  79.
 Defaulting to unpruned grid for atomic number  79.
 Defaulting to unpruned grid for atomic number  79.
 Defaulting to unpruned grid for atomic number  79.
 Defaulting to unpruned grid for atomic number  79.
 Defaulting to unpruned grid for atomic number  79.
 Inv3:  Mode=1 IEnd=   125466267.
 Iteration    1 A*A^-1 deviation from unit magnitude is 3.55D-15 for   2028.
 Iteration    1 A*A^-1 deviation from orthogonality  is 3.11D-15 for   5396    264.
 Iteration    1 A^-1*A deviation from unit magnitude is 3.33D-15 for   2028.
 Iteration    1 A^-1*A deviation from orthogonality  is 2.52D-15 for   4017   3559.
 E= -1975.66266337004    
 DIIS: error= 2.11D-01 at cycle   1 NSaved=   1.
 NSaved= 1 IEnMin= 1 EnMin= -1975.66266337004     IErMin= 1 ErrMin= 2.11D-01
 ErrMax= 2.11D-01  0.00D+00 EMaxC= 1.00D-01 BMatC= 6.27D+00 BMatP= 6.27D+00
 IDIUse=3 WtCom= 0.00D+00 WtEn= 1.00D+00
 Coeff-Com:  0.100D+01
 Coeff-En:   0.100D+01
 Coeff:      0.100D+01
 Gap=     1.012 Goal=   None    Shift=    0.000
 GapD=    1.012 DampG=2.000 DampE=0.125 DampFc=0.2500 IDamp=-1.
 Damping current iteration by 2.50D-01
 RMSDP=1.44D-02 MaxDP=3.44D+00              OVMax= 8.02D-01

 Cycle   2  Pass 1  IDiag  1:
 RMSU=  3.61D-03    CP:  9.98D-01
 E= -1977.92494276583     Delta-E=       -2.262279395795 Rises=F Damp=T
 DIIS: error= 8.65D-02 at cycle   2 NSaved=   2.
 NSaved= 2 IEnMin= 2 EnMin= -1977.92494276583     IErMin= 2 ErrMin= 8.65D-02
 ErrMax= 8.65D-02  0.00D+00 EMaxC= 1.00D-01 BMatC= 1.23D+00 BMatP= 6.27D+00
 IDIUse=3 WtCom= 1.35D-01 WtEn= 8.65D-01
 Coeff-Com: -0.626D+00 0.163D+01
 Coeff-En:   0.000D+00 0.100D+01
 Coeff:     -0.846D-01 0.108D+01
 Gap=    -0.032 Goal=   None    Shift=    0.000
 RMSDP=3.63D-03 MaxDP=7.63D-01 DE=-2.26D+00 OVMax= 9.96D-01

 Cycle   3  Pass 1  IDiag  1:
 RMSU=  3.53D-03    CP:  9.34D-01  9.46D-01
 E= -1979.69926635796     Delta-E=       -1.774323592131 Rises=F Damp=F
 DIIS: error= 8.17D-02 at cycle   3 NSaved=   3.
 NSaved= 3 IEnMin= 3 EnMin= -1979.69926635796     IErMin= 3 ErrMin= 8.17D-02
 ErrMax= 8.17D-02  0.00D+00 EMaxC= 1.00D-01 BMatC= 1.54D+00 BMatP= 1.23D+00
 IDIUse=2 WtCom= 0.00D+00 WtEn= 1.00D+00
 EnCoef did   100 forward-backward iterations
 Coeff-En:   0.246D+00 0.467D-02 0.749D+00
 Coeff:      0.246D+00 0.467D-02 0.749D+00
 Gap=     0.215 Goal=   None    Shift=    0.000
[...]
     10  -0.455702D+01 -0.222569D-01 -0.456049D-02 -0.226384D-01  0.302078D-02
     11  -0.380783D-02 -0.248939D+00 -0.298011D+01  0.305186D+00 -0.661507D+01
     12   0.176749D-02 -0.148531D-01  0.929821D-01  0.535409D+00  0.160865D+01
     13  -0.188300D-03 -0.107464D-01 -0.134907D-02  0.268764D-01  0.458956D-01
     14  -0.136611D+01 -0.139449D-01  0.345792D-02 -0.336865D-01  0.108656D-01
     15   0.108633D-01 -0.509093D-02 -0.319922D-01  0.663753D-02  0.129923D+00
     16  -0.301212D-02 -0.817577D-01  0.978420D-02 -0.319743D-01 -0.843620D-02
                 6             7             8             9            10 
      1  -0.198105D+04 -0.198105D+04 -0.198105D+04 -0.198105D+04 -0.198105D+04
      2  -0.114432D-03 -0.844239D-02  0.112530D-01 -0.525006D+00 -0.132592D+00
      3   0.122971D+01  0.161381D+01  0.249529D-01  0.201755D-01  0.958172D-02
      4  -0.694416D-02  0.760150D-01  0.615867D-01 -0.118205D-01 -0.155680D-01
      5   0.230436D-04  0.139223D-02 -0.205712D-02  0.953735D-01  0.252478D-01
      6  -0.198706D+00 -0.273946D+00 -0.435628D-02 -0.341845D-02 -0.163228D-02
      7   0.120420D-02 -0.136113D-01 -0.129492D-01  0.191673D-02  0.292320D-02
      8  -0.209217D-01 -0.124317D-01  0.778102D-03 -0.169958D+00 -0.472933D-01
      9   0.138313D-01  0.626635D-01  0.242849D-02 -0.182930D-01 -0.545916D-02
     10   0.166576D+01 -0.297893D+01 -0.562268D-02 -0.328990D-01 -0.440772D-02
     11   0.113308D-01  0.126708D-01 -0.106908D-01  0.166424D+01  0.195186D+01
     12  -0.372741D-02 -0.775203D-02 -0.115702D-01  0.117434D+01 -0.149391D+01
     13   0.469760D-03  0.212551D-02 -0.144166D-02  0.123365D-01  0.233983D-01
     14   0.266725D+01 -0.354825D+01  0.440292D-01 -0.470008D-01 -0.254164D-01
     15  -0.229487D-01 -0.101143D+00  0.152951D+00  0.286572D-02 -0.254512D-01
     16  -0.168849D-01 -0.516586D-02 -0.995599D-03  0.605880D-01  0.298726D-01
                11            12            13            14            15 
      1  -0.198105D+04 -0.198104D+04 -0.198104D+04 -0.198104D+04 -0.198103D+04
      2   0.637939D-02  0.849331D-01 -0.938498D+00  0.391754D+00 -0.134936D-01
      3   0.159487D+00  0.117389D+01  0.118541D+00 -0.703926D-02  0.996483D+00
      4  -0.186578D+00  0.664995D-02  0.839313D-02 -0.994032D-02  0.595448D-01
      5  -0.126444D-02 -0.155826D-01  0.173423D+00 -0.696373D-01  0.254151D-02
      6  -0.273267D-01 -0.213983D+00 -0.219756D-01  0.132991D-02 -0.191992D+00
      7   0.394677D-01 -0.175350D-02 -0.159801D-02  0.174308D-02 -0.120684D-01
      8  -0.663703D-02 -0.403266D-01  0.103863D+00 -0.359620D-02 -0.919752D-02
      9  -0.692829D-01 -0.300321D-02 -0.379253D-01  0.186941D-01  0.362232D-01
     10  -0.116351D+00  0.150205D+01  0.168065D+00 -0.927745D-02 -0.219267D+01
     11  -0.670570D-01  0.153566D+00 -0.991973D+00  0.264977D+01  0.217367D-01
     12   0.446385D-01  0.713122D-01 -0.688633D+00 -0.182567D+01  0.422537D-02
     13  -0.130338D-01 -0.100597D-01  0.107387D+00  0.789663D-01  0.182059D-02
     14  -0.531931D+00  0.218596D+01  0.263908D+00 -0.222893D-01 -0.281582D+01
     15   0.100941D+00  0.249118D-02 -0.474974D-02 -0.511137D-01 -0.886133D-01
     16  -0.116200D-02  0.125401D-01 -0.795667D-01  0.190027D-01 -0.633695D-02
                16            17            18            19            20 
      1  -0.198103D+04 -0.198103D+04 -0.198103D+04 -0.198103D+04 -0.198103D+04
      2   0.181896D+00  0.134654D+01  0.750857D-02 -0.243431D-02  0.533522D-02
      3  -0.970109D-02  0.111783D-01 -0.585626D+00  0.141323D+01 -0.184511D+01
      4  -0.191364D-02 -0.115134D-01 -0.293012D-01  0.868061D-01 -0.151532D-01
      5  -0.335300D-01 -0.245724D+00 -0.140139D-02  0.385907D-03 -0.100534D-02
      6   0.182530D-02 -0.219243D-02  0.114465D+00 -0.277799D+00  0.360500D+00
      7   0.335874D-03  0.179300D-02  0.543313D-02 -0.161746D-01  0.470501D-02
      8   0.104476D+00 -0.207191D+00 -0.132468D-01 -0.100967D-01 -0.262419D-01
      9   0.709240D-02  0.551305D-01 -0.183456D-01  0.842233D-01 -0.693352D-02
     10  -0.316974D-01 -0.307948D-01 -0.180693D+01 -0.436202D+01 -0.405428D+01
     11   0.349504D+00  0.230867D+01  0.379827D-02 -0.888004D-02 -0.105128D-01
     12  -0.930927D-02 -0.430166D+00  0.219267D-02  0.138847D-02  0.212939D-02
     13  -0.660229D-02  0.664093D-02 -0.865173D-03  0.185087D-02 -0.307104D-02
     14  -0.251633D-01 -0.318689D-01 -0.138360D+01 -0.464198D+01 -0.292017D+01
     15  -0.323433D-02 -0.352534D-01 -0.555028D-01 -0.126096D+00  0.503261D-01
     16   0.408655D-01  0.388893D-01  0.342688D-03 -0.453855D-02 -0.240384D-02
                21            22            23            24            25 
      1  -0.198102D+04 -0.198102D+04 -0.198102D+04 -0.198102D+04 -0.198102D+04
      2  -0.141608D+00 -0.122020D+01  0.268100D-01  0.393961D-01 -0.595301D+00
      3   0.182521D+01 -0.220261D+00 -0.193800D+01  0.181317D+01 -0.569813D-01
      4   0.103432D-01 -0.263514D-02 -0.968045D-01 -0.313762D-01  0.463501D-01
      5   0.286313D-01  0.246607D+00 -0.538475D-02 -0.741060D-02  0.119964D+00
      6  -0.353317D+00  0.427431D-01  0.389342D+00 -0.367355D+00  0.111120D-01
      7  -0.188423D-02  0.522865D-03  0.191990D-01  0.116870D-01 -0.928593D-02
      8   0.257238D-01  0.133828D+00  0.139779D-01  0.267220D-03 -0.134116D+00
      9   0.362759D-01 -0.589796D-01 -0.101442D+00  0.198187D+00 -0.247860D-01
     10   0.440192D+01 -0.425520D+00  0.412728D+01  0.294162D+01  0.228761D+00
     11   0.323368D-02 -0.244197D-02  0.156579D-03  0.736425D-01 -0.240537D+00
     12  -0.882267D-01 -0.712925D+00  0.175138D-01  0.625462D-02 -0.392543D+00
     13   0.152057D-01  0.118812D+00 -0.515520D-02 -0.478652D-02  0.671863D-01
     14   0.417813D+01 -0.393007D+00  0.526109D+01  0.312966D+01  0.414286D+00
     15  -0.202584D-01  0.366259D-02  0.142070D+00 -0.144526D+00 -0.130737D-01
     16  -0.141822D-01 -0.570058D-01  0.117399D-01 -0.148549D-02 -0.117970D+00
                26            27            28            29            30 
      1  -0.198102D+04 -0.198102D+04 -0.198101D+04 -0.198101D+04 -0.198101D+04
      2  -0.100794D+00  0.171385D+00 -0.113138D+01  0.878456D-01  0.128127D+01
      3   0.100835D+01  0.102819D+00  0.668170D-01  0.157639D+01 -0.970826D-01
      4  -0.307242D+00 -0.187601D-01 -0.130251D-01  0.935404D-01 -0.345816D-01
      5   0.207315D-01 -0.405421D-01  0.237816D+00 -0.181411D-01 -0.258312D+00
      6  -0.201759D+00 -0.208369D-01 -0.138549D-01 -0.329478D+00  0.202518D-01
      7   0.640508D-01  0.417888D-02  0.282985D-02 -0.207184D-01  0.703372D-02
      8  -0.345677D-01 -0.156805D+00 -0.527418D-01 -0.308241D-01  0.192966D+00
      9   0.350960D-01  0.171841D-01 -0.598125D-01  0.721253D-01  0.632019D-01
     10  -0.456109D+00  0.715375D-01 -0.100796D+00 -0.238437D+01 -0.293750D-02
     11   0.366257D-01 -0.155022D+00  0.451999D+01  0.267756D-01  0.550127D+01
     12  -0.946254D-02 -0.722539D+00  0.708389D+00 -0.664529D-01 -0.112946D+01
     13  -0.125109D-01  0.249525D-01 -0.237902D-01  0.521787D-02  0.478774D-01
     14  -0.160371D+01  0.184266D-01 -0.238749D+00 -0.536572D+01  0.732568D-01
     15   0.157812D+00  0.248215D-02  0.552838D-01 -0.150482D+00 -0.626388D-01
     16  -0.272801D-01  0.112177D+00  0.505526D-01 -0.310601D-01  0.333197D-02
                31            32            33            34            35 
      1  -0.198101D+04 -0.198100D+04 -0.198100D+04 -0.198100D+04 -0.198100D+04
      2   0.337527D-02  0.402403D-01  0.291250D-02  0.102566D+00  0.341089D-01
      3   0.595451D+00  0.117497D+01  0.166694D-01  0.930610D-02  0.303167D+00
      4   0.761380D-01 -0.201903D-01 -0.534961D-03 -0.356444D-03 -0.400824D-01
      5  -0.111085D-02 -0.858424D-02 -0.638496D-03 -0.227584D-01 -0.752385D-02
      6  -0.127654D+00 -0.251832D+00 -0.363491D-02 -0.199746D-02 -0.681440D-01
      7  -0.225658D-01  0.500023D-02  0.386935D-04  0.817441D-04  0.469536D-02
      8  -0.149464D-01 -0.496857D-01 -0.114599D-02 -0.815502D-01 -0.234436D-01
      9  -0.721248D-01 -0.385875D-01 -0.165143D-02  0.734312D-02 -0.618998D-01
     10   0.872204D+00  0.996793D+00  0.552727D-02  0.269017D-01 -0.880266D-01
     11  -0.274575D-01  0.693856D-01 -0.234403D-02  0.457553D-01  0.124371D-01
     12   0.319161D-02 -0.183832D-01  0.396064D-02 -0.760896D-01 -0.316473D-01
     13   0.815670D-03 -0.125302D-02 -0.352622D-03 -0.786790D-02 -0.211925D-02
     14   0.140449D+01  0.341606D+01  0.376826D-01  0.161084D-01  0.693233D+00
     15   0.220785D+00 -0.602502D-01 -0.718367D-03 -0.643086D-02 -0.496575D-01
     16  -0.914727D-02 -0.376015D-01 -0.676005D-03 -0.612997D-01 -0.461242D-02
                36            37            38            39            40 
      1  -0.198100D+04 -0.198100D+04 -0.198100D+04 -0.198100D+04 -0.198100D+04
      2   0.803308D-01 -0.818619D+00 -0.262551D-01  0.286391D+00  0.178701D+00
      3   0.844563D+00  0.609699D-01 -0.368370D+00 -0.447523D-01 -0.272488D-01
      4  -0.459321D-01 -0.219471D-01 -0.167397D+00 -0.132939D-02  0.836057D-02
      5  -0.180733D-01  0.185528D+00  0.585480D-02 -0.685040D-01 -0.388832D-01
      6  -0.185255D+00 -0.134962D-01  0.815298D-01  0.997301D-02  0.607954D-02
      7   0.819202D-02  0.465891D-02  0.342772D-01  0.211361D-03 -0.195592D-02
      8   0.332011D-01 -0.228744D-01 -0.104626D-01  0.190050D-01  0.717397D-01
      9   0.553862D-01 -0.403358D-01  0.283106D+00  0.367384D-01  0.278055D-01
     10   0.291484D+01  0.162433D+00 -0.111857D+01 -0.133714D+00 -0.381037D-01
     11  -0.113184D+00  0.276456D+01 -0.630800D-01 -0.203405D+00  0.934679D+00
     12  -0.820612D-01  0.115257D+01  0.258129D-01 -0.110500D+01 -0.695859D+00
     13  -0.773511D-02  0.875456D-01 -0.948050D-03 -0.641800D-01 -0.191313D-02
     14   0.116168D+01  0.832756D-01 -0.489583D+00 -0.822812D-01 -0.399562D-01
     15  -0.138236D+00  0.138825D-01 -0.331701D+00 -0.327472D-01 -0.418363D-01
     16   0.146673D-01  0.869494D-01 -0.462478D-02 -0.107458D+00 -0.695111D-03
                41            42            43            44            45 
      1  -0.198100D+04 -0.198100D+04 -0.198099D+04 -0.198099D+04 -0.198099D+04
      2  -0.996900D+00 -0.190444D+00  0.923160D-01 -0.135668D+01  0.311893D-01
      3   0.232136D-01 -0.918577D-01  0.410496D+00  0.202758D-02 -0.952810D+00
      4  -0.186209D-01  0.209817D+00 -0.797395D+00 -0.648340D-01  0.160279D+00
      5   0.231168D+00  0.440822D-01 -0.213497D-01  0.315647D+00 -0.730774D-02
      6  -0.520416D-02  0.208817D-01 -0.103417D+00 -0.114684D-02  0.210818D+00
      7   0.205579D-02 -0.348582D-01  0.186505D+00  0.151325D-01 -0.363070D-01
      8  -0.662565D-01 -0.128052D-01 -0.432209D-01  0.132565D-01 -0.524111D-01
      9  -0.148763D-01 -0.375952D+00 -0.739905D+00 -0.108053D+00  0.355050D-01
     10   0.634191D-01 -0.265589D+00 -0.816281D+00 -0.151324D+00 -0.389614D+01
     11  -0.477986D+00 -0.161161D+00 -0.337073D+00  0.692210D+01 -0.216906D+00
     12  -0.344536D+01 -0.487767D+00 -0.828175D-01  0.146461D+01 -0.442099D-01
     13   0.445402D-01  0.176626D-02 -0.627262D-01  0.774861D-01  0.770575D-02
     14   0.669221D-01 -0.385723D+00 -0.667311D+00 -0.824750D-01 -0.138393D+01
     15  -0.518252D-01  0.549710D+00  0.373504D+00  0.658863D-01  0.146199D-01
     16   0.306064D-01  0.785894D-02  0.185499D-02  0.426236D-01 -0.182047D-01
                46            47            48            49            50 
      1  -0.198099D+04 -0.198099D+04 -0.198099D+04 -0.198099D+04 -0.198099D+04
      2  -0.115040D-01  0.922239D+00  0.323934D-01  0.553643D-01  0.184616D-02
      3  -0.371797D+00 -0.121565D-01 -0.692043D-02  0.558413D-02 -0.449627D+00
      4  -0.152973D-03 -0.320146D-01 -0.146093D-02 -0.572469D-02 -0.648321D-01
      5   0.264577D-02 -0.208094D+00 -0.893215D-02 -0.133478D-01 -0.448925D-03
      6   0.895450D-01  0.290930D-02  0.157948D-02 -0.125093D-02  0.105512D+00
      7   0.186054D-02  0.705669D-02  0.191284D-03  0.107860D-02  0.156715D-01
      8  -0.642854D-02 -0.202075D+00 -0.241582D+00  0.268356D+00 -0.196223D-01
      9   0.538041D-01  0.732927D-01  0.414494D-02  0.197134D-01  0.134728D-01
     10  -0.102513D+01 -0.542303D-01 -0.216463D-01  0.874594D-01 -0.369944D+01
     11  -0.261456D-01  0.452755D+01  0.826730D+00  0.189734D+01  0.538311D-01
     12  -0.450899D-02  0.126792D+01 -0.651295D+00  0.164679D-02 -0.100977D-01
     13   0.274153D-02 -0.114678D+00 -0.184419D-01 -0.275620D-01 -0.549760D-02
     14  -0.133694D+01 -0.457159D-01 -0.185048D-01  0.699443D-01 -0.330372D+01
     15  -0.404688D-01 -0.922047D-01 -0.195003D-01 -0.457799D-01 -0.723969D-01
     16   0.139983D-01 -0.591155D-02 -0.349052D-01  0.384179D-01 -0.302384D-02
                51            52            53            54            55 
      1  -0.198099D+04 -0.198099D+04 -0.198099D+04 -0.198098D+04 -0.198098D+04
      2   0.468086D-02 -0.688883D-02  0.102610D-01 -0.148788D-01  0.204432D+00
      3   0.142280D+01  0.726298D-01  0.209336D+00  0.219593D+00 -0.548585D-01
      4  -0.310999D-01  0.519877D-03 -0.264086D+00  0.858828D-01  0.172142D-01
      5  -0.116977D-02  0.151939D-02 -0.239818D-02  0.469363D-02 -0.444768D-01
      6  -0.328707D+00 -0.168163D-01 -0.510263D-01 -0.514783D-01  0.129280D-01
      7   0.627004D-02 -0.537113D-02  0.647411D-01 -0.123108D-01 -0.544565D-02
      8  -0.415628D-02  0.663302D-03  0.716066D-02 -0.296536D-01 -0.120906D+00
      9  -0.559569D-01 -0.921999D-01 -0.255080D+00 -0.579688D-01 -0.229443D-01
     10  -0.115864D+01 -0.976857D-01 -0.497668D+00  0.467349D+00 -0.131361D+00
     11  -0.346049D-01 -0.180239D+00  0.690971D-01 -0.102289D+01 -0.445852D+01
     12  -0.854061D-02  0.319712D-01 -0.154412D-01  0.148638D+00  0.374874D+00
     13  -0.539449D-02  0.430722D-02 -0.199351D-01 -0.443931D-02 -0.193115D-01
     14  -0.249452D+01 -0.913266D-02  0.459119D+00  0.189242D+00 -0.232645D-01
     15  -0.169825D-01  0.869284D-01  0.148564D+00  0.831324D-01  0.895804D-01
     16  -0.104536D-01  0.881277D-02  0.132146D-01  0.200499D-01  0.597264D-01
                56            57            58            59            60 
      1  -0.198098D+04 -0.198098D+04 -0.198098D+04 -0.198098D+04 -0.198098D+04
      2   0.116071D-01  0.100396D+00  0.198724D+01  0.114055D+01  0.775246D-01
      3   0.110018D+00 -0.327195D-01  0.143548D-01 -0.506017D-02  0.225698D+00
      4  -0.386899D+00 -0.203624D+00 -0.164402D-01 -0.196811D-01  0.116681D+00
      5  -0.273361D-02 -0.240932D-01 -0.474072D+00 -0.272407D+00 -0.184600D-01
      6  -0.320040D-01  0.100724D-01 -0.328574D-02  0.921753D-03 -0.541462D-01
      7   0.929156D-01  0.394046D-01  0.458835D-02  0.469676D-02 -0.232620D-01
      8  -0.308514D-01 -0.514194D-02 -0.575701D-01  0.124441D+00  0.245815D-01
      9  -0.270575D+00  0.429128D+00  0.115065D+00  0.553039D-01 -0.200745D+00
     10   0.885079D+00 -0.360660D+00  0.424583D-01 -0.126685D-01  0.135251D+01
     11  -0.245668D-01  0.274479D+00  0.634303D+01  0.236754D+01  0.360779D+00
     12  -0.537414D-02 -0.132497D+00 -0.235255D+01 -0.984117D+00 -0.846089D-01
     13  -0.303525D-01 -0.117680D-01 -0.541660D-04 -0.300649D-01  0.509724D-02
     14  -0.571325D+00 -0.137351D+00  0.317352D-01 -0.687182D-02  0.474930D+00
     15   0.172121D+00 -0.302923D+00 -0.126603D+00 -0.456971D-01  0.129944D+00
     16  -0.899787D-02  0.873097D-02  0.367328D-01 -0.256905D-01  0.172764D-02
 1\1\GINC-COMPUTE-0-40\SP\RCAM-B3LYP TD-FC\Gen\C45H39Au1N2\BENCSURA\19-
 Oct-2023\0\\#p cam-b3lyp chkbasis geom=allcheck Guess=Read int=ultrafi
 ne scrf=(SMD,solvent=Acetonitrile) td=(NStates=60) EmpiricalDispersion
 =GD3BJ\\Title\\0,1\Au,0,-4.5601368605,0.0029537887,-0.0354341294\C,0,-
 7.2005816265,1.2011487607,0.0422248932\C,0,-7.2034831488,-1.1872814046
 ,0.060974671\C,0,-8.5948803177,-1.2042176142,0.1057584354\C,0,-9.27697
 89307,0.0099280272,0.1172020795\C,0,-8.5919657919,1.2220922292,0.08582
 4655\C,0,-6.2745720962,2.3545454536,0.0054510658\C,0,-4.8851433229,2.0
 628563813,-0.038732855\C,0,-3.9881883938,3.1269521215,-0.0749406054\C,
 0,-4.4425250394,4.4485282538,-0.0675243145\C,0,-5.8072790607,4.7233806
 801,-0.0227868285\C,0,-6.7250263058,3.6769181497,0.0139492243\H,0,-9.1
 36801737,-2.1485767735,0.1305002535\H,0,-10.3682669392,0.0115364305,0.
 1514532327\H,0,-9.1316926955,2.167991213,0.0947798811\H,0,-2.913667731
 8,2.931974662,-0.1094529974\H,0,-3.722654539,5.2703787982,-0.096609859
 5\H,0,-6.1607206783,5.7565489798,-0.0163919771\H,0,-7.7938873915,3.897
 0626078,0.049007397\C,0,-6.2803697975,-2.343359005,0.0413881937\C,0,-6
 .7341703029,-3.6642768155,0.0704054615\C,0,-4.8902372917,-2.0558706493
 ,-0.0075631695\C,0,-5.8190522444,-4.7134925428,0.050703184\H,0,-7.8035
 896912,-3.8811307302,0.1087098196\C,0,-3.9959415745,-3.1226537119,-0.0
 262802928\C,0,-4.4535894198,-4.4427989144,0.0023343098\H,0,-6.17508635
 44,-5.7455402966,0.0735114767\H,0,-2.9209179066,-2.9309342361,-0.06316
 94271\H,0,-3.7357727275,-5.2668142041,-0.0129433389\N,0,-6.5810399093,
 0.0060165135,0.0310254834\C,0,-2.5902000975,-0.0010903391,-0.082039904
 \C,0,-1.3716811117,-0.0046178806,-0.0919706493\C,0,0.0634043093,-0.010
 1620224,-0.090701764\C,0,0.7877344395,0.7114365585,-1.0527176602\C,0,0
 .7740570171,-0.7358428434,0.8787310486\C,0,2.1759858864,0.7007119706,-
 1.0509021289\H,0,0.2513893704,1.2765435926,-1.8169060615\C,0,2.1618478
 746,-0.7285644491,0.8947393943\H,0,0.2265309436,-1.2987351789,1.636597
 1571\C,0,2.8718928935,-0.01368792,-0.0728497847\H,0,2.7284745946,1.247
 1498488,-1.8166624933\H,0,2.7029096517,-1.2755660015,1.668193343\C,0,5
 .1062920971,-1.1360589068,-0.053104826\C,0,5.0985994982,1.1208818151,-
 0.0288174502\C,0,4.7752854152,-2.4924973319,-0.1037365609\C,0,6.455444
 3563,-0.7284024718,-0.0208741665\C,0,4.7569201005,2.4750418923,0.00949
 82236\C,0,6.450436451,0.7218479992,-0.0028475112\C,0,5.8120409349,-3.4
 13837787,-0.1051414208\H,0,3.7377199263,-2.8254561066,-0.1425810197\C,
 0,7.4802378513,-1.6817286294,-0.0216124252\C,0,5.7866662323,3.40295484
 43,0.0581758577\H,0,3.71656189,2.8013383948,0.0037299226\C,0,7.4680271
 079,1.6816872112,0.0449827403\C,0,7.1747590416,-3.0396627424,-0.060027
 7065\H,0,5.5528487759,-4.4736431183,-0.1434406113\H,0,8.5143689617,-1.
 3393994761,0.0055952265\C,0,7.1524123687,3.0375570493,0.0729137836\H,0
 ,5.5191400444,4.460958603,0.0871260512\H,0,8.5045191476,1.3459719605,0
 .0632753692\N,0,4.286081059,-0.0102582543,-0.0591905979\C,0,8.22260015
 67,4.1356637313,0.1207076609\C,0,8.2529627974,-4.1309195663,-0.0582130
 582\C,0,8.1314418722,-4.9735071449,-1.3378259478\H,0,8.8992773942,-5.7
 630901435,-1.3515082985\H,0,7.1491388616,-5.4623096073,-1.4139226098\H
 ,0,8.2694767809,-4.3496792736,-2.2346040823\C,0,9.664579528,-3.5420242
 929,-0.0028235687\H,0,10.4049912304,-4.3560342156,-0.001173734\H,0,9.8
 762913927,-2.9017689677,-0.8721044253\H,0,9.8241862957,-2.9451699297,0
 .907538282\C,0,8.0604576732,-5.0382852387,1.1673663368\H,0,8.144564045
 7,-4.4615924246,2.1016135257\H,0,7.0769065825,-5.530497365,1.161281591
 \H,0,8.8286615457,-5.8274301113,1.1847415358\C,0,8.0305265612,4.984626
 3683,1.3873970239\H,0,8.7934622881,5.777500945,1.4368412138\H,0,7.0438
 336439,5.4699785323,1.4090402514\H,0,8.1236778032,4.366450646,2.293827
 3339\C,0,9.6387754082,3.5555391149,0.1414148019\H,0,9.8499773909,2.957
 1051565,-0.7573099363\H,0,10.3732235211,4.3742097315,0.1759675791\H,0,
 9.8082005466,2.9191430462,1.0227411313\C,0,8.0875557414,5.0349177545,-
 1.118463134\H,0,8.225662708,4.4539419694,-2.0435801721\H,0,7.100771859
 7,5.5182597051,-1.1670843402\H,0,8.8489341659,5.8306451474,-1.09990925
 82\\Version=ES64L-G16RevA.03\State=1-A\HF=-1981.2257941\RMSD=6.107e-09
 \PG=C01 [X(C45H39Au1N2)]\\@


 THAT'S WHAT MAKES US A GREAT COUNTRY.
 THE LITTLE THINGS ARE SERIOUS AND THE BIG ONES ARE NOT.
           WILL ROGERS
 Job cpu time:       2 days  2 hours 43 minutes 29.5 seconds.
 Elapsed time:       0 days  4 hours 15 minutes 37.8 seconds.
 File lengths (MBytes):  RWF=  22572 Int=      0 D2E=      0 Chk=   1646 Scr=      1
 Normal termination of Gaussian 16 at Thu Oct 19 23:36:39 2023.
