
                                 *****************
                                 * O   R   C   A *
                                 *****************

                                            #,                                       
                                            ###                                      
                                            ####                                     
                                            #####                                    
                                            ######                                   
                                           ########,                                 
                                     ,,################,,,,,                         
                               ,,#################################,,                 
                          ,,##########################################,,             
                       ,#########################################, ''#####,          
                    ,#############################################,,   '####,        
                  ,##################################################,,,,####,       
                ,###########''''           ''''###############################       
              ,#####''   ,,,,##########,,,,          '''####'''          '####       
            ,##' ,,,,###########################,,,                        '##       
           ' ,,###''''                  '''############,,,                           
         ,,##''                                '''############,,,,        ,,,,,,###''
      ,#''                                            '''#######################'''  
     '                                                          ''''####''''         
             ,#######,   #######,   ,#######,      ##                                
            ,#'     '#,  ##    ##  ,#'     '#,    #''#        ######   ,####,        
            ##       ##  ##   ,#'  ##            #'  '#       #        #'  '#        
            ##       ##  #######   ##           ,######,      #####,   #    #        
            '#,     ,#'  ##    ##  '#,     ,#' ,#      #,         ##   #,  ,#        
             '#######'   ##     ##  '#######'  #'      '#     #####' # '####'        



                  #######################################################
                  #                        -***-                        #
                  #          Department of theory and spectroscopy      #
                  #    Directorship and core code : Frank Neese         #
                  #        Max Planck Institute fuer Kohlenforschung    #
                  #                Kaiser Wilhelm Platz 1               #
                  #                 D-45470 Muelheim/Ruhr               #
                  #                      Germany                        #
                  #                                                     #
                  #                  All rights reserved                #
                  #                        -***-                        #
                  #######################################################


                         Program Version 5.0.2 -  RELEASE  -


 With contributions from (in alphabetic order):
   Daniel Aravena         : Magnetic Suceptibility
   Michael Atanasov       : Ab Initio Ligand Field Theory (pilot matlab implementation)
   Alexander A. Auer      : GIAO ZORA, VPT2 properties, NMR spectrum
   Ute Becker             : Parallelization
   Giovanni Bistoni       : ED, misc. LED, open-shell LED, HFLD
   Martin Brehm           : Molecular dynamics
   Dmytro Bykov           : SCF Hessian
   Vijay G. Chilkuri      : MRCI spin determinant printing, contributions to CSF-ICE
   Dipayan Datta          : RHF DLPNO-CCSD density
   Achintya Kumar Dutta   : EOM-CC, STEOM-CC
   Dmitry Ganyushin       : Spin-Orbit,Spin-Spin,Magnetic field MRCI
   Miquel Garcia          : C-PCM and meta-GGA Hessian, CC/C-PCM, Gaussian charge scheme
   Yang Guo               : DLPNO-NEVPT2, F12-NEVPT2, CIM, IAO-localization
   Andreas Hansen         : Spin unrestricted coupled pair/coupled cluster methods
   Benjamin Helmich-Paris : MC-RPA, TRAH-SCF, COSX integrals
   Lee Huntington         : MR-EOM, pCC
   Robert Izsak           : Overlap fitted RIJCOSX, COSX-SCS-MP3, EOM
   Marcus Kettner         : VPT2
   Christian Kollmar      : KDIIS, OOCD, Brueckner-CCSD(T), CCSD density, CASPT2, CASPT2-K
   Simone Kossmann        : Meta GGA functionals, TD-DFT gradient, OOMP2, MP2 Hessian
   Martin Krupicka        : Initial AUTO-CI
   Lucas Lang             : DCDCAS
   Marvin Lechner         : AUTO-CI (C++ implementation), FIC-MRCC
   Dagmar Lenk            : GEPOL surface, SMD
   Dimitrios Liakos       : Extrapolation schemes; Compound Job, initial MDCI parallelization
   Dimitrios Manganas     : Further ROCIS development; embedding schemes
   Dimitrios Pantazis     : SARC Basis sets
   Anastasios Papadopoulos: AUTO-CI, single reference methods and gradients
   Taras Petrenko         : DFT Hessian,TD-DFT gradient, ASA, ECA, R-Raman, ABS, FL, XAS/XES, NRVS
   Peter Pinski           : DLPNO-MP2, DLPNO-MP2 Gradient
   Christoph Reimann      : Effective Core Potentials
   Marius Retegan         : Local ZFS, SOC
   Christoph Riplinger    : Optimizer, TS searches, QM/MM, DLPNO-CCSD(T), (RO)-DLPNO pert. Triples
   Tobias Risthaus        : Range-separated hybrids, TD-DFT gradient, RPA, STAB
   Michael Roemelt        : Original ROCIS implementation
   Masaaki Saitow         : Open-shell DLPNO-CCSD energy and density
   Barbara Sandhoefer     : DKH picture change effects
   Avijit Sen             : IP-ROCIS
   Kantharuban Sivalingam : CASSCF convergence, NEVPT2, FIC-MRCI
   Bernardo de Souza      : ESD, SOC TD-DFT
   Georgi Stoychev        : AutoAux, RI-MP2 NMR, DLPNO-MP2 response
   Willem Van den Heuvel  : Paramagnetic NMR
   Boris Wezisla          : Elementary symmetry handling
   Frank Wennmohs         : Technical directorship


 We gratefully acknowledge several colleagues who have allowed us to
 interface, adapt or use parts of their codes:
   Stefan Grimme, W. Hujo, H. Kruse, P. Pracht,  : VdW corrections, initial TS optimization,
                  C. Bannwarth, S. Ehlert          DFT functionals, gCP, sTDA/sTD-DF
   Ed Valeev, F. Pavosevic, A. Kumar             : LibInt (2-el integral package), F12 methods
   Garnet Chan, S. Sharma, J. Yang, R. Olivares  : DMRG
   Ulf Ekstrom                                   : XCFun DFT Library
   Mihaly Kallay                                 : mrcc  (arbitrary order and MRCC methods)
   Jiri Pittner, Ondrej Demel                    : Mk-CCSD
   Frank Weinhold                                : gennbo (NPA and NBO analysis)
   Christopher J. Cramer and Donald G. Truhlar   : smd solvation model
   Lars Goerigk                                  : TD-DFT with DH, B97 family of functionals
   V. Asgeirsson, H. Jonsson                     : NEB implementation
   FAccTs GmbH                                   : IRC, NEB, NEB-TS, DLPNO-Multilevel, CI-OPT
                                                   MM, QMMM, 2- and 3-layer-ONIOM, Crystal-QMMM,
                                                   LR-CPCM, SF, NACMEs, symmetry and pop. for TD-DFT,
                                                   nearIR, NL-DFT gradient (VV10), updates on ESD,
                                                   ML-optimized integration grids
   S Lehtola, MJT Oliveira, MAL Marques          : LibXC Library
   Liviu Ungur et al                             : ANISO software


 Your calculation uses the libint2 library for the computation of 2-el integrals
 For citations please refer to: http://libint.valeyev.net

 Your ORCA version has been built with support for libXC version: 5.1.0
 For citations please refer to: https://tddft.org/programs/libxc/

 This ORCA versions uses:
   CBLAS   interface :  Fast vector & matrix operations
   LAPACKE interface :  Fast linear algebra routines
   SCALAPACK package :  Parallel linear algebra routines
   Shared memory     :  Shared parallel matrices
   BLAS/LAPACK       :  OpenBLAS 0.3.15  USE64BITINT DYNAMIC_ARCH NO_AFFINITY Zen SINGLE_THREADED
        Core in use  :  Zen
   Copyright (c) 2011-2014, The OpenBLAS Project


Your calculation utilizes the SMD solvation module
Please cite in your paper:
A.V. Marenich, C.J. Cramer, D.G. Truhlar J. Phys. Chem. B, 113, (2009), 6378 

================================================================================

cite the ECPs for W  [Def2-ECP] as follows:
Ce-Yb(ecp-28): M. Dolg, H. Stoll, H.Preuss, J. Chem. Phys., 1989, 90, 1730-1734.
Y-Cd(ecp-28), Hf-Hg(ecp-46): D. Andrae,U. Haeussermann, M. Dolg, H. Stoll, H. Preuss, Theor. Chim. Acta, 1990, 77, 123-141.
In-Sb(ecp-28), Tl-Bi(ecp-46): B. Metz, H. Stoll, M. Dolg, J. Chem. Phys., 2000, 113, 2563-2569.
Te-Xe(ecp-28), Po-Rn(ecp-46): K. A. Peterson, D. Figgen, E. Goll, H. Stoll, M. Dolg, J. Chem. Phys., 2003, 119, 11113-11123.
Rb(ecp-28), Cs(ecp-46): T. Leininger, A. Nicklass, W. Kuechle, H. Stoll, M. Dolg, A. Bergner, Chem. Phys. Lett., 1996, 255, 274-280.
Sr(ecp-28), Ba(ecp-46): M. Kaupp, P. V. Schleyer, H. Stoll and H. Preuss, J. Chem. Phys., 1991, 94, 1360-1366.
La(ecp-46): M. Dolg, H. Stoll, A. Savin, H. Preuss, Theor. Chim. Acta, 1989, 75, 173-194.
Lu(ecp-28): X. Cao, M. Dolg, J. Chem. Phys., 2001, 115, 7348-7355.

ECP parameters for W  [Def2-ECP] have been obtained from:
TURBOMOLE (7.0.2)

----- Orbital basis set information -----
Your calculation utilizes the basis: def2-SVP
   F. Weigend and R. Ahlrichs, Phys. Chem. Chem. Phys. 7, 3297 (2005).

----- AuxJ basis set information -----
Your calculation utilizes the auxiliary basis: def2/J
   F. Weigend, Phys. Chem. Chem. Phys. 8, 1057 (2006).

----- AuxC basis set information -----
Your calculation utilizes the auxiliary basis: def2-SVP/C
  H-La, Hf-Rn : A. Hellweg, C. Hattig, S. Hofener and W. Klopper, Theor. Chem. Acc. 117, 587 (2007).
        Ce-Lu : J. Chmela and M. E. Harding, Mol. Phys. (2018).

================================================================================
                                        WARNINGS
                       Please study these warnings very carefully!
================================================================================

INFO   : Checking CIS options ...
  ===> : (D) CORRECTION FOUND - SETTING MODE=3
  ===> : JK MODE FOUND - ACTIVATING RI-MP2 CODE
  ===> : MP2 AND CIS FOUND - CHECKING
WARNING: CIS(D) and MP2 runs must have the same orbital window
  ===> : adjusting orbital windows

WARNING: No MP2 level density has been requested!
         To caclulate MP2 level properties use
         %mp2 Density relaxed end
         or
         %mp2 Density unrelaxed end
         Otherwise for double-hybrid DFT only the energy is correct!

WARNING: The frozen-core approximation is turned on by default for 
         the MP2 part of double-hybrid DFT.

WARNING:  You are using a Range-Separated Double Hybrid functional with Doubles Correction 
          Changing Mode to RPA_AOINTS 


WARNING: CIS/ROCIS methods need fully converged wavefunctions
  ===> : Setting SCFConvForced true
         You can overwrite this default with %scf ConvForced false 


INFO   : the flag for use of the SHARK integral package has been found!

================================================================================
                                       INPUT FILE
================================================================================
NAME = W-CN_1.inp
|  1> %maxcore 26000
|  2> %pal
|  3>  nprocs= 8
|  4> end
|  5> ! RI-wB2PLYP  def2-SVP def2/J def2-SVP/C RIJCOSX CPCM TIGHTSCF
|  6> 
|  7> %TDDFT 
|  8>     DCORR      1
|  9>     NROOTS    40
| 10>     TDA       FALSE
| 11> END
| 12> 
| 13> %CPCM
| 14>     SMD		TRUE
| 15>     SMDsolvent	"THF"
| 16> END
| 17> 
| 18> * xyz 0 1
| 19> W                  -0.08133200    0.19152500   -0.26582700
| 20> C                   0.36393000   -1.63946400    0.60957200
| 21> N                   0.68171900   -2.67881900    1.10609600
| 22> C                   0.71824200   -3.85750500    1.79649900
| 23> C                   1.95405400   -4.53447000    1.93374000
| 24> C                  -0.48743900   -4.34911500    2.35854800
| 25> C                   1.96029600   -5.72132200    2.66933300
| 26> C                  -0.41613900   -5.53836500    3.08701400
| 27> C                   0.79121400   -6.21774900    3.24479000
| 28> H                   2.89682900   -6.26812500    2.80075800
| 29> H                  -1.32364900   -5.94513300    3.53958100
| 30> H                   0.82088000   -7.14551400    3.82132700
| 31> C                   3.19101800   -3.97513400    1.26453400
| 32> H                   3.15414200   -2.88044300    1.40299300
| 33> C                  -1.79533500   -3.63210500    2.09991000
| 34> H                  -1.58389400   -2.54770400    2.08833100
| 35> C                   3.16193600   -4.22463300   -0.24328800
| 36> H                   3.17584500   -5.30284600   -0.47003000
| 37> H                   2.26469000   -3.79577400   -0.71467900
| 38> H                   4.03925200   -3.77228100   -0.73184500
| 39> C                   4.48996300   -4.47339200    1.87373300
| 40> H                   5.34812500   -3.93881200    1.44172500
| 41> H                   4.52207700   -4.32451800    2.96322200
| 42> H                   4.65480300   -5.54447600    1.67919300
| 43> C                  -2.32171400   -3.99312900    0.70998300
| 44> H                  -1.59802300   -3.75119100   -0.08472500
| 45> H                  -2.54017200   -5.07074000    0.64273500
| 46> H                  -3.25279900   -3.45036900    0.48517700
| 47> C                  -2.84645500   -3.87293800    3.16987000
| 48> H                  -2.47164800   -3.63351300    4.17674100
| 49> H                  -3.72797700   -3.24136400    2.98890100
| 50> H                  -3.20070000   -4.91516000    3.18346200
| 51> C                   1.43689800   -0.37208000   -1.57603200
| 52> N                   2.37957100   -0.83683300   -2.14527600
| 53> C                   3.27227900   -1.64080000   -2.79535600
| 54> C                   4.65425300   -1.35881700   -2.68560300
| 55> C                   2.77755400   -2.76150500   -3.50764800
| 56> C                   5.53961300   -2.19872300   -3.36417600
| 57> C                   5.11107300   -0.24275700   -1.77174400
| 58> C                   3.71036300   -3.57104300   -4.15859200
| 59> C                   1.29055100   -3.04039300   -3.52169400
| 60> C                   5.07482000   -3.28746000   -4.10167300
| 61> H                   6.61384300   -2.00723800   -3.30972000
| 62> H                   4.40932800    0.60012200   -1.91532400
| 63> C                   6.51395200    0.26022400   -2.06195200
| 64> C                   4.98744300   -0.68793100   -0.31302100
| 65> H                   3.36638900   -4.44485900   -4.71720000
| 66> H                   0.91879000   -2.81827800   -2.50253200
| 67> C                   0.56112800   -2.09682500   -4.47652200
| 68> C                   0.95113000   -4.49168000   -3.81490000
| 69> H                   5.78539100   -3.93122300   -4.62580900
| 70> H                   7.27779100   -0.50460200   -1.85348200
| 71> H                   6.63608700    0.57735000   -3.10812400
| 72> H                   6.75211900    1.12229600   -1.42190600
| 73> H                   5.28592600    0.11919100    0.37366800
| 74> H                   3.95801900   -0.98204600   -0.05535500
| 75> H                   5.64366700   -1.55002700   -0.11068200
| 76> H                   0.79328100   -1.04037100   -4.28055800
| 77> H                   0.83469900   -2.30813500   -5.52248300
| 78> H                  -0.52885900   -2.20962800   -4.38710800
| 79> H                   1.51353200   -5.18544100   -3.17254700
| 80> H                  -0.11788600   -4.67709900   -3.63861200
| 81> H                   1.15602100   -4.76497000   -4.86184300
| 82> C                   1.46281600    1.06113800    0.83931800
| 83> N                   2.42894900    1.52516000    1.36856700
| 84> C                   3.66703400    2.03187800    1.66202900
| 85> C                   4.31147900    1.61217900    2.85016100
| 86> C                   4.27715600    2.92237700    0.74272900
| 87> C                   5.59698300    2.09758300    3.09738800
| 88> C                   3.62376600    0.62072800    3.76196300
| 89> C                   5.56632200    3.36959900    1.04097100
| 90> C                   3.52080300    3.39227800   -0.48074600
| 91> C                   6.22290800    2.96313500    2.20188900
| 92> H                   6.12258800    1.79026500    4.00444000
| 93> H                   2.55722700    0.91192200    3.79053400
| 94> C                   4.14300000    0.63037100    5.18885900
| 95> C                   3.68866600   -0.78567800    3.16631100
| 96> H                   6.06981000    4.05147800    0.35149300
| 97> H                   2.93945600    2.53048900   -0.85915400
| 98> C                   2.52236700    4.48114900   -0.08860500
| 99> C                   4.41404500    3.87301000   -1.61242200
|100> H                   7.23142000    3.32751900    2.41189200
|101> H                   5.17033500    0.24108200    5.25922800
|102> H                   4.13724500    1.63868900    5.62849400
|103> H                   3.51771200   -0.01268800    5.82553500
|104> H                   3.19883200   -1.52125700    3.82377700
|105> H                   3.18919700   -0.83561700    2.18820600
|106> H                   4.73313200   -1.11065100    3.02957500
|107> H                   1.78524300    4.12748300    0.64797100
|108> H                   3.04246400    5.34695000    0.35079100
|109> H                   1.96953100    4.84324900   -0.96783800
|110> H                   5.18115100    3.13375600   -1.88600000
|111> H                   3.81228900    4.07219200   -2.51133100
|112> H                   4.93063800    4.81281000   -1.36356800
|113> C                  -0.41982000    2.13518300   -0.96690000
|114> N                  -0.54637800    3.29316900   -1.23370300
|115> C                  -0.77395500    4.64157600   -1.21730900
|116> C                  -1.34668800    5.22119000   -0.05689300
|117> C                  -0.37162200    5.41566400   -2.33179700
|118> C                  -1.55790600    6.60178500   -0.06801600
|119> C                  -1.71758100    4.35463600    1.12822600
|120> C                  -0.60950400    6.79034900   -2.28481600
|121> C                   0.30407000    4.74155300   -3.50637000
|122> C                  -1.20596500    7.37883200   -1.17069000
|123> H                  -1.99900000    7.08300600    0.80812200
|124> H                  -0.94116500    3.57129900    1.21490400
|125> C                  -3.04720500    3.64383700    0.88086700
|126> C                  -1.74746800    5.10876400    2.44687700
|127> H                  -0.31151200    7.41731800   -3.12841400
|128> H                   0.93736400    3.93928100   -3.08323000
|129> C                  -0.72013600    4.06932100   -4.41707400
|130> C                   1.20913200    5.67159600   -4.29695400
|131> H                  -1.38217900    8.45709700   -1.15398200
|132> H                  -3.85319200    4.37266100    0.69870200
|133> H                  -2.99990900    2.96771300    0.01387700
|134> H                  -3.33707700    3.04142600    1.75462700
|135> H                  -1.88288900    4.40581400    3.28234300
|136> H                  -0.81550900    5.66400900    2.62919300
|137> H                  -2.58044000    5.82654600    2.49894300
|138> H                  -1.33912200    3.34226600   -3.87361800
|139> H                  -1.39644800    4.81307800   -4.86689600
|140> H                  -0.22417100    3.53128300   -5.23833300
|141> H                   1.92923100    6.19835700   -3.65291500
|142> H                   1.78425600    5.10443400   -5.04282800
|143> H                   0.63913300    6.43401300   -4.84980500
|144> C                  -1.48215700    0.44613400    1.25399700
|145> N                  -2.27197300    0.49326200    2.15113300
|146> C                  -2.93050600    0.42393600    3.34782100
|147> C                  -2.17006500    0.47115500    4.54458600
|148> C                  -4.34281600    0.31167400    3.35162700
|149> C                  -2.86118700    0.36341200    5.75287200
|150> C                  -0.66271000    0.58894100    4.47942700
|151> C                  -4.97614500    0.20340000    4.59195700
|152> C                  -5.10565800    0.30335700    2.04242700
|153> C                  -4.24735300    0.22155500    5.78006800
|154> H                  -2.30567100    0.39328100    6.69316800
|155> H                  -0.42830000    1.27573400    3.64380700
|156> C                  -0.04259300   -0.76489800    4.13806900
|157> C                  -0.03938600    1.16861000    5.73779800
|158> H                  -6.06324300    0.11071100    4.63468100
|159> H                  -4.65303800    1.09363500    1.41275800
|160> C                  -4.92673600   -1.01420100    1.28928700
|161> C                  -6.58063000    0.62614700    2.21040300
|162> H                  -4.76686500    0.13631400    6.73754900
|163> H                  -0.21211300   -1.49188300    4.94890900
|164> H                  -0.46585100   -1.18908100    3.21809000
|165> H                   1.04331400   -0.68131400    3.98420800
|166> H                   1.03436100    1.34905800    5.58415900
|167> H                  -0.49671100    2.12650100    6.02613400
|168> H                  -0.12558900    0.48509800    6.59634600
|169> H                  -3.86867200   -1.24831900    1.10056600
|170> H                  -5.36554400   -1.85379400    1.85160500
|171> H                  -5.43416700   -0.97634200    0.31216900
|172> H                  -6.74278100    1.57560100    2.74146800
|173> H                  -7.07449100    0.70587500    1.23206500
|174> H                  -7.11252900   -0.16136200    2.76580400
|175> C                  -1.59413400   -0.64776300   -1.44354000
|176> N                  -2.50122500   -1.12700400   -2.06306900
|177> C                  -3.74381900   -1.33945300   -2.60483600
|178> C                  -4.02851700   -2.55640200   -3.26580300
|179> C                  -4.72621500   -0.31907000   -2.46399300
|180> C                  -5.32033900   -2.74415100   -3.76745400
|181> C                  -2.98371700   -3.63287900   -3.45908400
|182> C                  -5.99623700   -0.56572700   -2.98568500
|183> C                  -4.37564400    0.99608000   -1.80162800
|184> C                  -6.29861800   -1.76649100   -3.62885100
|185> H                  -5.55854000   -3.68156700   -4.27846400
|186> H                  -2.04976400   -3.27884900   -2.98928900
|187> C                  -2.71508800   -3.85861200   -4.94428700
|188> C                  -3.38258200   -4.93655400   -2.77746500
|189> H                  -6.77197000    0.19690500   -2.88958700
|190> H                  -3.75791200    0.76050600   -0.91215000
|191> C                  -3.52426400    1.85810100   -2.73385700
|192> C                  -5.58948700    1.77586000   -1.32590100
|193> H                  -7.30263200   -1.93461300   -4.02578300
|194> H                  -3.60468100   -4.26203300   -5.45273100
|195> H                  -2.43912700   -2.92793700   -5.46123200
|196> H                  -1.89996900   -4.58126800   -5.09935200
|197> H                  -2.57472100   -5.68078300   -2.84617100
|198> H                  -3.61268100   -4.79156700   -1.71312300
|199> H                  -4.27309800   -5.38102000   -3.24879700
|200> H                  -2.59504100    1.35701200   -3.04126700
|201> H                  -4.08415200    2.11218500   -3.64793100
|202> H                  -3.24592400    2.80480800   -2.24589500
|203> H                  -6.26031400    1.16447800   -0.70519300
|204> H                  -5.28020600    2.64427600   -0.72688900
|205> H                  -6.18333300    2.16748700   -2.16631200
|206> *
|207> 
|208>                          ****END OF INPUT****
================================================================================

                       ****************************
                       * Single Point Calculation *
                       ****************************

---------------------------------
CARTESIAN COORDINATES (ANGSTROEM)
---------------------------------
  W     -0.081332    0.191525   -0.265827
  C      0.363930   -1.639464    0.609572
  N      0.681719   -2.678819    1.106096
  C      0.718242   -3.857505    1.796499
  C      1.954054   -4.534470    1.933740
  C     -0.487439   -4.349115    2.358548
  C      1.960296   -5.721322    2.669333
  C     -0.416139   -5.538365    3.087014
  C      0.791214   -6.217749    3.244790
  H      2.896829   -6.268125    2.800758
  H     -1.323649   -5.945133    3.539581
  H      0.820880   -7.145514    3.821327
  C      3.191018   -3.975134    1.264534
  H      3.154142   -2.880443    1.402993
  C     -1.795335   -3.632105    2.099910
  H     -1.583894   -2.547704    2.088331
  C      3.161936   -4.224633   -0.243288
  H      3.175845   -5.302846   -0.470030
  H      2.264690   -3.795774   -0.714679
  H      4.039252   -3.772281   -0.731845
  C      4.489963   -4.473392    1.873733
  H      5.348125   -3.938812    1.441725
  H      4.522077   -4.324518    2.963222
  H      4.654803   -5.544476    1.679193
  C     -2.321714   -3.993129    0.709983
  H     -1.598023   -3.751191   -0.084725
  H     -2.540172   -5.070740    0.642735
  H     -3.252799   -3.450369    0.485177
  C     -2.846455   -3.872938    3.169870
  H     -2.471648   -3.633513    4.176741
  H     -3.727977   -3.241364    2.988901
  H     -3.200700   -4.915160    3.183462
  C      1.436898   -0.372080   -1.576032
  N      2.379571   -0.836833   -2.145276
  C      3.272279   -1.640800   -2.795356
  C      4.654253   -1.358817   -2.685603
  C      2.777554   -2.761505   -3.507648
  C      5.539613   -2.198723   -3.364176
  C      5.111073   -0.242757   -1.771744
  C      3.710363   -3.571043   -4.158592
  C      1.290551   -3.040393   -3.521694
  C      5.074820   -3.287460   -4.101673
  H      6.613843   -2.007238   -3.309720
  H      4.409328    0.600122   -1.915324
  C      6.513952    0.260224   -2.061952
  C      4.987443   -0.687931   -0.313021
  H      3.366389   -4.444859   -4.717200
  H      0.918790   -2.818278   -2.502532
  C      0.561128   -2.096825   -4.476522
  C      0.951130   -4.491680   -3.814900
  H      5.785391   -3.931223   -4.625809
  H      7.277791   -0.504602   -1.853482
  H      6.636087    0.577350   -3.108124
  H      6.752119    1.122296   -1.421906
  H      5.285926    0.119191    0.373668
  H      3.958019   -0.982046   -0.055355
  H      5.643667   -1.550027   -0.110682
  H      0.793281   -1.040371   -4.280558
  H      0.834699   -2.308135   -5.522483
  H     -0.528859   -2.209628   -4.387108
  H      1.513532   -5.185441   -3.172547
  H     -0.117886   -4.677099   -3.638612
  H      1.156021   -4.764970   -4.861843
  C      1.462816    1.061138    0.839318
  N      2.428949    1.525160    1.368567
  C      3.667034    2.031878    1.662029
  C      4.311479    1.612179    2.850161
  C      4.277156    2.922377    0.742729
  C      5.596983    2.097583    3.097388
  C      3.623766    0.620728    3.761963
  C      5.566322    3.369599    1.040971
  C      3.520803    3.392278   -0.480746
  C      6.222908    2.963135    2.201889
  H      6.122588    1.790265    4.004440
  H      2.557227    0.911922    3.790534
  C      4.143000    0.630371    5.188859
  C      3.688666   -0.785678    3.166311
  H      6.069810    4.051478    0.351493
  H      2.939456    2.530489   -0.859154
  C      2.522367    4.481149   -0.088605
  C      4.414045    3.873010   -1.612422
  H      7.231420    3.327519    2.411892
  H      5.170335    0.241082    5.259228
  H      4.137245    1.638689    5.628494
  H      3.517712   -0.012688    5.825535
  H      3.198832   -1.521257    3.823777
  H      3.189197   -0.835617    2.188206
  H      4.733132   -1.110651    3.029575
  H      1.785243    4.127483    0.647971
  H      3.042464    5.346950    0.350791
  H      1.969531    4.843249   -0.967838
  H      5.181151    3.133756   -1.886000
  H      3.812289    4.072192   -2.511331
  H      4.930638    4.812810   -1.363568
  C     -0.419820    2.135183   -0.966900
  N     -0.546378    3.293169   -1.233703
  C     -0.773955    4.641576   -1.217309
  C     -1.346688    5.221190   -0.056893
  C     -0.371622    5.415664   -2.331797
  C     -1.557906    6.601785   -0.068016
  C     -1.717581    4.354636    1.128226
  C     -0.609504    6.790349   -2.284816
  C      0.304070    4.741553   -3.506370
  C     -1.205965    7.378832   -1.170690
  H     -1.999000    7.083006    0.808122
  H     -0.941165    3.571299    1.214904
  C     -3.047205    3.643837    0.880867
  C     -1.747468    5.108764    2.446877
  H     -0.311512    7.417318   -3.128414
  H      0.937364    3.939281   -3.083230
  C     -0.720136    4.069321   -4.417074
  C      1.209132    5.671596   -4.296954
  H     -1.382179    8.457097   -1.153982
  H     -3.853192    4.372661    0.698702
  H     -2.999909    2.967713    0.013877
  H     -3.337077    3.041426    1.754627
  H     -1.882889    4.405814    3.282343
  H     -0.815509    5.664009    2.629193
  H     -2.580440    5.826546    2.498943
  H     -1.339122    3.342266   -3.873618
  H     -1.396448    4.813078   -4.866896
  H     -0.224171    3.531283   -5.238333
  H      1.929231    6.198357   -3.652915
  H      1.784256    5.104434   -5.042828
  H      0.639133    6.434013   -4.849805
  C     -1.482157    0.446134    1.253997
  N     -2.271973    0.493262    2.151133
  C     -2.930506    0.423936    3.347821
  C     -2.170065    0.471155    4.544586
  C     -4.342816    0.311674    3.351627
  C     -2.861187    0.363412    5.752872
  C     -0.662710    0.588941    4.479427
  C     -4.976145    0.203400    4.591957
  C     -5.105658    0.303357    2.042427
  C     -4.247353    0.221555    5.780068
  H     -2.305671    0.393281    6.693168
  H     -0.428300    1.275734    3.643807
  C     -0.042593   -0.764898    4.138069
  C     -0.039386    1.168610    5.737798
  H     -6.063243    0.110711    4.634681
  H     -4.653038    1.093635    1.412758
  C     -4.926736   -1.014201    1.289287
  C     -6.580630    0.626147    2.210403
  H     -4.766865    0.136314    6.737549
  H     -0.212113   -1.491883    4.948909
  H     -0.465851   -1.189081    3.218090
  H      1.043314   -0.681314    3.984208
  H      1.034361    1.349058    5.584159
  H     -0.496711    2.126501    6.026134
  H     -0.125589    0.485098    6.596346
  H     -3.868672   -1.248319    1.100566
  H     -5.365544   -1.853794    1.851605
  H     -5.434167   -0.976342    0.312169
  H     -6.742781    1.575601    2.741468
  H     -7.074491    0.705875    1.232065
  H     -7.112529   -0.161362    2.765804
  C     -1.594134   -0.647763   -1.443540
  N     -2.501225   -1.127004   -2.063069
  C     -3.743819   -1.339453   -2.604836
  C     -4.028517   -2.556402   -3.265803
  C     -4.726215   -0.319070   -2.463993
  C     -5.320339   -2.744151   -3.767454
  C     -2.983717   -3.632879   -3.459084
  C     -5.996237   -0.565727   -2.985685
  C     -4.375644    0.996080   -1.801628
  C     -6.298618   -1.766491   -3.628851
  H     -5.558540   -3.681567   -4.278464
  H     -2.049764   -3.278849   -2.989289
  C     -2.715088   -3.858612   -4.944287
  C     -3.382582   -4.936554   -2.777465
  H     -6.771970    0.196905   -2.889587
  H     -3.757912    0.760506   -0.912150
  C     -3.524264    1.858101   -2.733857
  C     -5.589487    1.775860   -1.325901
  H     -7.302632   -1.934613   -4.025783
  H     -3.604681   -4.262033   -5.452731
  H     -2.439127   -2.927937   -5.461232
  H     -1.899969   -4.581268   -5.099352
  H     -2.574721   -5.680783   -2.846171
  H     -3.612681   -4.791567   -1.713123
  H     -4.273098   -5.381020   -3.248797
  H     -2.595041    1.357012   -3.041267
  H     -4.084152    2.112185   -3.647931
  H     -3.245924    2.804808   -2.245895
  H     -6.260314    1.164478   -0.705193
  H     -5.280206    2.644276   -0.726889
  H     -6.183333    2.167487   -2.166312

----------------------------
CARTESIAN COORDINATES (A.U.)
----------------------------
  NO LB      ZA    FRAG     MASS         X           Y           Z
   0 W    14.0000*   0   183.850   -0.153695    0.361930   -0.502340
   1 C     6.0000    0    12.011    0.687728   -3.098138    1.151924
   2 N     7.0000    0    14.007    1.288262   -5.062234    2.090219
   3 C     6.0000    0    12.011    1.357281   -7.289628    3.394891
   4 C     6.0000    0    12.011    3.692627   -8.568906    3.654239
   5 C     6.0000    0    12.011   -0.921126   -8.218636    4.457010
   6 C     6.0000    0    12.011    3.704423  -10.811732    5.044308
   7 C     6.0000    0    12.011   -0.786389  -10.465993    5.833611
   8 C     6.0000    0    12.011    1.495178  -11.749843    6.131764
   9 H     1.0000    0     1.008    5.474213  -11.845040    5.292666
  10 H     1.0000    0     1.008   -2.501334  -11.234673    6.688839
  11 H     1.0000    0     1.008    1.551238  -13.503065    7.221261
  12 C     6.0000    0    12.011    6.030150   -7.511915    2.389623
  13 H     1.0000    0     1.008    5.960465   -5.443248    2.651273
  14 C     6.0000    0    12.011   -3.392691   -6.863684    3.968255
  15 H     1.0000    0     1.008   -2.993126   -4.814463    3.946374
  16 C     6.0000    0    12.011    5.975193   -7.983399   -0.459748
  17 H     1.0000    0     1.008    6.001477  -10.020927   -0.888228
  18 H     1.0000    0     1.008    4.279644   -7.172973   -1.350548
  19 H     1.0000    0     1.008    7.633080   -7.128578   -1.382987
  20 C     6.0000    0    12.011    8.484800   -8.453486    3.540842
  21 H     1.0000    0     1.008   10.106492   -7.443276    2.724465
  22 H     1.0000    0     1.008    8.545487   -8.172155    5.599678
  23 H     1.0000    0     1.008    8.796303  -10.477541    3.173215
  24 C     6.0000    0    12.011   -4.387404   -7.545920    1.341673
  25 H     1.0000    0     1.008   -3.019826   -7.088724   -0.160107
  26 H     1.0000    0     1.008   -4.800229   -9.582310    1.214593
  27 H     1.0000    0     1.008   -6.146899   -6.520252    0.916852
  28 C     6.0000    0    12.011   -5.379020   -7.318792    5.990186
  29 H     1.0000    0     1.008   -4.670738   -6.866344    7.892897
  30 H     1.0000    0     1.008   -7.044856   -6.125290    5.648204
  31 H     1.0000    0     1.008   -6.048446   -9.288306    6.015871
  32 C     6.0000    0    12.011    2.715344   -0.703129   -2.978269
  33 N     7.0000    0    14.007    4.496738   -1.581385   -4.053984
  34 C     6.0000    0    12.011    6.183711   -3.100663   -5.282457
  35 C     6.0000    0    12.011    8.795264   -2.567792   -5.075054
  36 C     6.0000    0    12.011    5.248816   -5.218488   -6.628494
  37 C     6.0000    0    12.011   10.468351   -4.154984   -6.357371
  38 C     6.0000    0    12.011    9.658528   -0.458744   -3.348111
  39 C     6.0000    0    12.011    7.011570   -6.748293   -7.858600
  40 C     6.0000    0    12.011    2.438788   -5.745510   -6.655037
  41 C     6.0000    0    12.011    9.590020   -6.212399   -7.751039
  42 H     1.0000    0     1.008   12.498352   -3.793130   -6.254464
  43 H     1.0000    0     1.008    8.332422    1.134066   -3.619438
  44 C     6.0000    0    12.011   12.309585    0.491752   -3.896525
  45 C     6.0000    0    12.011    9.424901   -1.300001   -0.591524
  46 H     1.0000    0     1.008    6.361553   -8.399566   -8.914216
  47 H     1.0000    0     1.008    1.736261   -5.325774   -4.729100
  48 C     6.0000    0    12.011    1.060378   -3.962425   -8.459401
  49 C     6.0000    0    12.011    1.797375   -8.488045   -7.209116
  50 H     1.0000    0     1.008   10.932805   -7.428935   -8.741512
  51 H     1.0000    0     1.008   13.753032   -0.953560   -3.502573
  52 H     1.0000    0     1.008   12.540387    1.091033   -5.873503
  53 H     1.0000    0     1.008   12.759656    2.120832   -2.687013
  54 H     1.0000    0     1.008    9.988953    0.225238    0.706130
  55 H     1.0000    0     1.008    7.479572   -1.855798   -0.104606
  56 H     1.0000    0     1.008   10.664985   -2.929127   -0.209159
  57 H     1.0000    0     1.008    1.499084   -1.966016   -8.089082
  58 H     1.0000    0     1.008    1.577353   -4.361743  -10.435980
  59 H     1.0000    0     1.008   -0.999399   -4.175592   -8.290433
  60 H     1.0000    0     1.008    2.860161   -9.799063   -5.995245
  61 H     1.0000    0     1.008   -0.222772   -8.838436   -6.875980
  62 H     1.0000    0     1.008    2.184563   -9.004488   -9.187552
  63 C     6.0000    0    12.011    2.764322    2.005260    1.586081
  64 N     7.0000    0    14.007    4.590048    2.882135    2.586217
  65 C     6.0000    0    12.011    6.929690    3.839693    3.140780
  66 C     6.0000    0    12.011    8.147515    3.046577    5.386024
  67 C     6.0000    0    12.011    8.082653    5.522492    1.403554
  68 C     6.0000    0    12.011   10.576765    3.963857    5.853215
  69 C     6.0000    0    12.011    6.847925    1.173006    7.109080
  70 C     6.0000    0    12.011   10.518824    6.367619    1.967150
  71 C     6.0000    0    12.011    6.653353    6.410476   -0.908478
  72 C     6.0000    0    12.011   11.759592    5.599514    4.160967
  73 H     1.0000    0     1.008   11.570015    3.383111    7.567295
  74 H     1.0000    0     1.008    4.832459    1.723283    7.163071
  75 C     6.0000    0    12.011    7.829135    1.191229    9.805522
  76 C     6.0000    0    12.011    6.970569   -1.484716    5.983461
  77 H     1.0000    0     1.008   11.470279    7.656184    0.664226
  78 H     1.0000    0     1.008    5.554767    4.781931   -1.623566
  79 C     6.0000    0    12.011    4.766583    8.468144   -0.167439
  80 C     6.0000    0    12.011    8.341336    7.318928   -3.047036
  81 H     1.0000    0     1.008   13.665403    6.288100    4.557815
  82 H     1.0000    0     1.008    9.770517    0.455579    9.938501
  83 H     1.0000    0     1.008    7.818260    3.096673   10.636312
  84 H     1.0000    0     1.008    6.647512   -0.023977   11.008666
  85 H     1.0000    0     1.008    6.044916   -2.874759    7.225891
  86 H     1.0000    0     1.008    6.026709   -1.579087    4.135110
  87 H     1.0000    0     1.008    8.944323   -2.098826    5.725067
  88 H     1.0000    0     1.008    3.373620    7.799812    1.224488
  89 H     1.0000    0     1.008    5.749424   10.104271    0.662899
  90 H     1.0000    0     1.008    3.721874    9.152414   -1.828949
  91 H     1.0000    0     1.008    9.790956    5.921941   -3.564023
  92 H     1.0000    0     1.008    7.204182    7.695328   -4.745728
  93 H     1.0000    0     1.008    9.317555    9.094893   -2.576770
  94 C     6.0000    0    12.011   -0.793345    4.034911   -1.827176
  95 N     7.0000    0    14.007   -1.032505    6.223188   -2.331361
  96 C     6.0000    0    12.011   -1.462563    8.771307   -2.300381
  97 C     6.0000    0    12.011   -2.544872    9.866619   -0.107512
  98 C     6.0000    0    12.011   -0.702264   10.234122   -4.406458
  99 C     6.0000    0    12.011   -2.944016   12.475566   -0.128532
 100 C     6.0000    0    12.011   -3.245758    8.229069    2.132038
 101 C     6.0000    0    12.011   -1.151796   12.831900   -4.317677
 102 C     6.0000    0    12.011    0.574609    8.960237   -6.626079
 103 C     6.0000    0    12.011   -2.278944   13.943972   -2.212283
 104 H     1.0000    0     1.008   -3.777563   13.384942    1.527129
 105 H     1.0000    0     1.008   -1.778544    6.748777    2.295836
 106 C     6.0000    0    12.011   -5.758383    6.885854    1.664597
 107 C     6.0000    0    12.011   -3.302236    9.654165    4.623927
 108 H     1.0000    0     1.008   -0.588672   14.016700   -5.911846
 109 H     1.0000    0     1.008    1.771361    7.444162   -5.826460
 110 C     6.0000    0    12.011   -1.360860    7.689902   -8.347060
 111 C     6.0000    0    12.011    2.284928   10.717763   -8.120066
 112 H     1.0000    0     1.008   -2.611940   15.981597   -2.180710
 113 H     1.0000    0     1.008   -7.281478    8.263132    1.320355
 114 H     1.0000    0     1.008   -5.669006    5.608165    0.026224
 115 H     1.0000    0     1.008   -6.306162    5.747462    3.315764
 116 H     1.0000    0     1.008   -3.558145    8.325782    6.202729
 117 H     1.0000    0     1.008   -1.541089   10.703426    4.968455
 118 H     1.0000    0     1.008   -4.876325   11.010576    4.722318
 119 H     1.0000    0     1.008   -2.530574    6.315967   -7.320077
 120 H     1.0000    0     1.008   -2.638904    9.095399   -9.197101
 121 H     1.0000    0     1.008   -0.423622    6.673158   -9.899015
 122 H     1.0000    0     1.008    3.645718   11.713197   -6.903009
 123 H     1.0000    0     1.008    3.371755    9.645982   -9.529564
 124 H     1.0000    0     1.008    1.207786   12.158523   -9.164803
 125 C     6.0000    0    12.011   -2.800871    0.843071    2.369711
 126 N     7.0000    0    14.007   -4.293407    0.932130    4.065052
 127 C     6.0000    0    12.011   -5.537854    0.801123    6.326465
 128 C     6.0000    0    12.011   -4.100829    0.890354    8.588023
 129 C     6.0000    0    12.011   -8.206733    0.588979    6.333657
 130 C     6.0000    0    12.011   -5.406860    0.686749   10.871353
 131 C     6.0000    0    12.011   -1.252340    1.112937    8.464890
 132 C     6.0000    0    12.011   -9.403551    0.384370    8.677541
 133 C     6.0000    0    12.011   -9.648295    0.573262    3.859628
 134 C     6.0000    0    12.011   -8.026334    0.418678   10.922746
 135 H     1.0000    0     1.008   -4.357087    0.743193   12.648254
 136 H     1.0000    0     1.008   -0.809370    2.410788    6.885797
 137 C     6.0000    0    12.011   -0.080489   -1.445448    7.819817
 138 C     6.0000    0    12.011   -0.074429    2.208353   10.842867
 139 H     1.0000    0     1.008  -11.457869    0.209213    8.758278
 140 H     1.0000    0     1.008   -8.792968    2.066671    2.669726
 141 C     6.0000    0    12.011   -9.310182   -1.916562    2.436399
 142 C     6.0000    0    12.011  -12.435588    1.183246    4.177056
 143 H     1.0000    0     1.008   -9.008069    0.257596   12.732122
 144 H     1.0000    0     1.008   -0.400835   -2.819250    9.352083
 145 H     1.0000    0     1.008   -0.880331   -2.247037    6.081309
 146 H     1.0000    0     1.008    1.971578   -1.287497    7.529062
 147 H     1.0000    0     1.008    1.954659    2.549350   10.552531
 148 H     1.0000    0     1.008   -0.938648    4.018505   11.387743
 149 H     1.0000    0     1.008   -0.237329    0.916702   12.465287
 150 H     1.0000    0     1.008   -7.310731   -2.358981    2.079768
 151 H     1.0000    0     1.008  -10.139409   -3.503163    3.499026
 152 H     1.0000    0     1.008  -10.269087   -1.845019    0.589914
 153 H     1.0000    0     1.008  -12.742009    2.977454    5.180624
 154 H     1.0000    0     1.008  -13.368851    1.333910    2.328265
 155 H     1.0000    0     1.008  -13.440732   -0.304930    5.226612
 156 C     6.0000    0    12.011   -3.012477   -1.224095   -2.727895
 157 N     7.0000    0    14.007   -4.726630   -2.129729   -3.898635
 158 C     6.0000    0    12.011   -7.074793   -2.531199   -4.922427
 159 C     6.0000    0    12.011   -7.612794   -4.830900   -6.171473
 160 C     6.0000    0    12.011   -8.931252   -0.602955   -4.656272
 161 C     6.0000    0    12.011  -10.053984   -5.185694   -7.119456
 162 C     6.0000    0    12.011   -5.638408   -6.865146   -6.536721
 163 C     6.0000    0    12.011  -11.331246   -1.069069   -5.642127
 164 C     6.0000    0    12.011   -8.268769    1.882318   -3.404584
 165 C     6.0000    0    12.011  -11.902663   -3.338184   -6.857535
 166 H     1.0000    0     1.008  -10.504118   -6.957153   -8.085125
 167 H     1.0000    0     1.008   -3.873493   -6.196127   -5.648938
 168 C     6.0000    0    12.011   -5.130773   -7.291720   -9.343348
 169 C     6.0000    0    12.011   -6.392154   -9.328735   -5.248648
 170 H     1.0000    0     1.008  -12.797169    0.372097   -5.460528
 171 H     1.0000    0     1.008   -7.101425    1.437148   -1.723714
 172 C     6.0000    0    12.011   -6.659894    3.511302   -5.166241
 173 C     6.0000    0    12.011  -10.562600    3.355889   -2.505590
 174 H     1.0000    0     1.008  -13.799975   -3.655889   -7.607627
 175 H     1.0000    0     1.008   -6.811860   -8.054075  -10.304168
 176 H     1.0000    0     1.008   -4.609282   -5.532999  -10.320233
 177 H     1.0000    0     1.008   -3.590421   -8.657342   -9.636379
 178 H     1.0000    0     1.008   -4.865518  -10.735124   -5.378484
 179 H     1.0000    0     1.008   -6.826978   -9.054749   -3.237333
 180 H     1.0000    0     1.008   -8.074985  -10.168654   -6.139337
 181 H     1.0000    0     1.008   -4.903917    2.564381   -5.747162
 182 H     1.0000    0     1.008   -7.717929    3.991451   -6.893591
 183 H     1.0000    0     1.008   -6.133907    5.300319   -4.244126
 184 H     1.0000    0     1.008  -11.830279    2.200545   -1.332622
 185 H     1.0000    0     1.008   -9.978143    4.996957   -1.373621
 186 H     1.0000    0     1.008  -11.684806    4.095957   -4.093736
* core charge reduced due to ECP

--------------------------------
INTERNAL COORDINATES (ANGSTROEM)
--------------------------------
 W      0   0   0     0.000000000000     0.00000000     0.00000000
 C      1   0   0     2.077763792149     0.00000000     0.00000000
 N      2   1   0     1.194899471555   176.95065400     0.00000000
 C      3   2   1     1.366488535822   165.31532615   160.95582977
 C      4   3   2     1.415749978863   118.99663661   188.24225766
 C      4   3   2     1.418184100976   118.45821351     7.71680221
 C      5   4   3     1.396335809939   117.47749740   178.67347900
 C      6   4   3     1.396446191465   117.29342321   181.54482904
 C      8   6   4     1.394330359793   121.21107667   359.52136614
 H      7   5   4     1.092410230418   119.51581854   180.32381352
 H      8   6   4     1.092635115404   119.38703093   179.67108227
 H      9   8   6     1.092713539383   119.79559653   179.87451100
 C      5   4   3     1.513530101659   119.59239532   357.27742592
 H     13   5   4     1.104028586377   106.48012144    40.79991191
 C      6   4   3     1.513799491994   120.17351807     4.71242041
 H     15   6   4     1.104883205829   107.53686696   323.02091362
 C     13   5   4     1.528601549590   111.11681299   285.15705855
 H     17  13   5     1.101884144642   111.25093428   296.71874128
 H     17  13   5     1.100536188082   111.98802041    57.26100089
 H     17  13   5     1.101359903941   110.81618608   177.18969062
 C     13   5   4     1.518763500085   113.60258164   159.14126264
 H     21  13   5     1.099476560327   110.51376090   187.44672454
 H     21  13   5     1.100082296009   112.19885797   307.39878391
 H     21  13   5     1.101017244305   112.10607229    68.60512065
 C     15   6   4     1.529480384165   109.92603763    78.85915714
 H     25  15   6     1.101736567692   112.18572591   302.59547662
 H     25  15   6     1.101585974216   110.77095604    62.75374493
 H     25  15   6     1.100929349441   111.11595971   182.27973670
 C     15   6   4     1.519101112464   113.72772274   204.51187434
 H     29  15   6     1.100724229094   111.97410190    54.08205893
 H     29  15   6     1.099416451087   110.35217415   173.63005735
 H     29  15   6     1.100863733517   112.42318031   292.65780133
 C      1   2   3     2.083101070748    82.55246880    43.30803456
 N     33   1   2     1.195268366299   168.39404279   337.30554865
 C     34  33   1     1.365977494966   166.14883655    70.36725073
 C     35  34  33     1.414712787096   118.95824320   207.45464220
 C     35  34  33     1.417071775145   118.45895369    24.76369318
 C     36  35  34     1.396340121448   117.50269165   180.10177699
 C     36  35  34     1.513080535821   119.26202544     4.54388730
 C     37  35  34     1.396142003903   117.36598031   180.28178818
 C     37  35  34     1.512994953286   119.57514317   359.60127175
 C     38  36  35     1.394733886097   121.01114584   358.89113005
 H     38  36  35     1.092520962756   119.59027913   179.48896441
 H     39  36  35     1.106122176826   106.98539637   318.06992160
 C     39  36  35     1.518314874545   114.07104382   198.71326931
 C     39  36  35     1.530142822715   109.68151593    73.91530736
 H     40  37  35     1.092664363927   119.45463073   179.94134172
 H     41  37  35     1.107353826286   106.52511672   320.61490877
 C     41  37  35     1.527767977520   111.17391623    76.74940063
 C     41  37  35     1.519016237585   113.42266459   203.03109949
 H     42  38  36     1.092730750325   119.78901769   179.94056567
 H     45  39  36     1.100849021936   112.00925599   293.78875454
 H     45  39  36     1.099982596083   112.32666891    55.10291127
 H     45  39  36     1.099795678837   110.39709511   175.28261552
 H     46  39  36     1.100944960883   111.06450159   181.70317274
 H     46  39  36     1.101185348866   112.10500754   302.18404835
 H     46  39  36     1.102170822655   110.76111705    62.56248789
 H     49  41  37     1.099268829186   112.41499661   307.44311933
 H     49  41  37     1.101602206635   110.87781273    67.84086987
 H     49  41  37     1.099450335565   111.04739120   187.51704749
 H     50  41  37     1.100098955246   112.05993302    50.50140794
 H     50  41  37     1.099205564379   110.33555431   169.98274746
 H     50  41  37     1.101252646412   112.27356248   289.17890389
 C      1   2   3     2.088531849577    89.17157192   318.60397914
 N     64   1   2     1.195338401531   173.46246862    88.33979073
 C     65  64   1     1.369575680345   165.73059327    15.44395645
 C     66  65  64     1.415314190577   118.80197687   223.10993515
 C     66  65  64     1.417868052354   118.84473977    40.96821648
 C     67  66  65     1.396158575077   117.69744772   177.24749275
 C     67  66  65     1.512384588315   119.56850157     0.00000000
 C     68  66  65     1.396747931233   117.37536013   183.03550460
 C     68  66  65     1.513197900486   120.27673616     5.11824307
 C     69  67  66     1.393872601542   121.03714638   359.85996881
 H     69  67  66     1.092450593781   119.48620683   180.17105869
 H     70  67  66     1.105945607251   106.34896798   319.47623561
 C     70  67  66     1.518462751937   114.00905446   200.96913065
 C     70  67  66     1.528722064975   110.41928480    75.28016066
 H     71  68  66     1.092629419917   119.36629382   179.59230976
 H     72  68  66     1.106271770133   107.29687435   321.30096800
 C     72  68  66     1.528492415623   109.89444506    77.80230221
 C     72  68  66     1.519761525820   113.98623471   202.41173124
 H     73  69  67     1.092690904881   119.87205876   180.30732710
 H     76  70  67     1.100870075852   112.14346463   291.30058564
 H     76  70  67     1.100007837415   112.30870837    52.70826973
 H     76  70  67     1.099939220776   110.23201607   172.61886993
 H     77  70  67     1.101487791105   111.27970234   179.52133743
 H     77  70  67     1.099387364266   111.66373236   299.49429145
 H     77  70  67     1.102367184554   111.08562696    59.94907576
 H     80  72  68     1.100443380964   112.35389353   300.05856856
 H     80  72  68     1.101445008081   110.72454213    60.36412986
 H     80  72  68     1.099906687490   110.96278407   179.41087648
 H     81  72  68     1.099905911356   112.49029153    52.68608929
 H     81  72  68     1.099918698332   110.13821049   172.53087352
 H     81  72  68     1.100918108201   112.17908634   291.18036376
 C      1   2   3     2.093772647265   173.59972773   297.78795914
 N     95   1   2     1.195044913118   172.47712412   355.70214150
 C     96  95   1     1.367575040652   166.01401325   318.83680501
 C     97  96  95     1.417935390397   118.68999716   351.48534190
 C     97  96  95     1.415333026809   118.85011015   168.51745427
 C     98  97  96     1.396703017351   117.29840267   179.56528079
 C     98  97  96     1.514260379369   120.36504426   359.00463384
 C     99  97  96     1.395906124892   117.62417304   180.35132134
 C     99  97  96     1.513475157217   119.63140522   359.65756342
 C    102  99  97     1.394042578147   121.03329682     0.84237562
 H    100  98  97     1.092591123303   119.34233069   179.89814894
 H    101  98  97     1.106323522442   107.13456054    37.08989457
 C    101  98  97     1.527848708040   110.65125733   280.66622912
 C    101  98  97     1.519356025741   113.58008994   155.38140290
 H    102  99  97     1.092495741241   119.51762890   180.00581527
 H    103  99  97     1.106231943139   106.36475027   323.96349715
 C    103  99  97     1.526524014838   111.07551136    80.08960841
 C    103  99  97     1.519585557561   113.39476101   205.93723237
 H    104 102  99     1.092696637354   119.85362678   179.93090091
 H    107 101  98     1.101809218681   110.83226756   301.28710183
 H    107 101  98     1.100478184742   112.08492682    61.92151602
 H    107 101  98     1.100173316757   110.82125156   182.01254926
 H    108 101  98     1.100218608685   110.14203041   187.87570499
 H    108 101  98     1.100038050052   112.19183719   307.59713268
 H    108 101  98     1.100801626391   112.30767796    69.08912957
 H    111 103  99     1.098679691792   111.98215749   303.31663661
 H    111 103  99     1.101322944498   110.99538261    63.63874303
 H    111 103  99     1.099969324913   110.99611334   183.24760424
 H    112 103  99     1.100366281946   112.22553295    51.79301297
 H    112 103  99     1.099440027239   110.41306062   171.78062046
 H    112 103  99     1.100828220065   112.13410154   290.62719940
 C      1   2   3     2.082546857692    86.81339348   225.09803828
 N    126   1   2     1.196195370638   175.06070372   349.00245263
 C    127 126   1     1.367674660038   166.44631790    52.42192000
 C    128 127 126     1.418713013145   118.57583420    26.02436718
 C    128 127 126     1.416769839593   119.10093299   205.84977992
 C    129 128 127     1.396142267367   117.52583967   181.64168905
 C    129 128 127     1.513353340467   120.01014566   359.70158850
 C    130 128 127     1.396870570317   117.41881618   178.14213083
 C    130 128 127     1.515256324670   119.99801295   358.53381909
 C    131 129 128     1.393671127067   121.13793682   359.68581569
 H    131 129 128     1.092541418452   119.40872083   179.83480443
 H    132 129 128     1.106749048949   106.96379519    38.45002276
 C    132 129 128     1.527727205942   110.17859592   282.28476544
 C    132 129 128     1.519225635703   113.74695570   157.05788743
 H    133 130 128     1.091878497133   119.52018305   180.26519329
 H    134 130 128     1.107197918732   106.35839901   316.86534897
 C    134 130 128     1.528133510217   111.81525515    72.96687237
 C    134 130 128     1.519194431750   113.08441188   198.55947299
 H    135 131 129     1.092670403912   119.86323977   179.83607584
 H    138 132 129     1.102136890874   110.96007345   294.22194181
 H    138 132 129     1.097925276371   111.90826477    54.42066320
 H    138 132 129     1.099933409360   111.38584674   174.17943842
 H    139 132 129     1.099590397845   110.33630034   187.22434470
 H    139 132 129     1.099926803202   112.26096167   307.03251526
 H    139 132 129     1.100783484459   112.14639514    68.42768649
 H    142 134 130     1.099966491245   112.37672937   303.70040649
 H    142 134 130     1.101667100188   111.03228271    64.74735437
 H    142 134 130     1.101671053249   110.70580649   183.67649203
 H    143 134 130     1.099902668031   112.32929117    54.29241206
 H    143 134 130     1.098817766306   110.69146521   174.48871835
 H    143 134 130     1.100707609714   111.89719789   293.10759483
 C      1   2   3     2.092840688757    92.21197661   136.74416206
 N    157   1   2     1.198458259683   176.72968704    78.94834248
 C    158 157   1     1.372110020635   162.07539984    51.14865702
 C    159 158 157     1.413822900824   120.01478353   190.13288729
 C    159 158 157     1.423418462067   118.35667439     9.21964067
 C    160 159 158     1.398466121322   117.98698628   178.14073012
 C    160 159 158     1.512536715749   122.22480842   357.20997299
 C    161 159 158     1.394976020940   117.68360174   181.84021124
 C    161 159 158     1.513686540128   120.41669766     3.45912743
 C    162 160 159     1.389985492388   121.32799163     0.24428749
 H    162 160 159     1.093901135184   118.93180785   180.21788290
 H    163 160 159     1.103772073000   107.56692334     0.97813217
 C    163 160 159     1.526088096454   110.56229601   243.00222511
 C    163 160 159     1.524226444795   111.76597293   119.10077818
 H    164 161 159     1.092064137456   119.36165087   179.77595863
 H    165 161 159     1.108268489936   107.19397919   317.49207915
 C    165 161 159     1.528718096080   110.61371902    74.27669805
 C    165 161 159     1.519140498959   113.45028638   198.79875259
 H    166 162 160     1.092640897873   120.15023574   180.17090397
 H    169 163 160     1.101199123695   111.18236394   294.72837203
 H    169 163 160     1.099792054059   112.11356751    54.71248556
 H    169 163 160     1.100316242142   111.38905324   175.45355619
 H    170 163 160     1.100561999252   111.00035376   185.23219442
 H    170 163 160     1.098540246388   112.03646492   305.63505551
 H    170 163 160     1.101236861731   111.43328617    65.96152735
 H    173 165 161     1.099566495374   112.59175555   301.99041241
 H    173 165 161     1.101619048980   110.67090607    62.47648133
 H    173 165 161     1.100833417413   110.82059290   181.43512474
 H    174 165 161     1.099579571981   112.26193750    51.53463995
 H    174 165 161     1.099370939293   110.56740958   171.77283862
 H    174 165 161     1.101051964153   111.99356457   290.57281907

---------------------------
INTERNAL COORDINATES (A.U.)
---------------------------
 W      0   0   0     0.000000000000     0.00000000     0.00000000
 C      1   0   0     3.926404538140     0.00000000     0.00000000
 N      2   1   0     2.258032758806   176.95065400     0.00000000
 C      3   2   1     2.582289097847   165.31532615   160.95582977
 C      4   3   2     2.675379734155   118.99663661   188.24225766
 C      4   3   2     2.679979558327   118.45821351     7.71680221
 C      5   4   3     2.638692271771   117.47749740   178.67347900
 C      6   4   3     2.638900862625   117.29342321   181.54482904
 C      8   6   4     2.634902520221   121.21107667   359.52136614
 H      7   5   4     2.064356161385   119.51581854   180.32381352
 H      8   6   4     2.064781132418   119.38703093   179.67108227
 H      9   8   6     2.064929332261   119.79559653   179.87451100
 C      5   4   3     2.860157387582   119.59239532   357.27742592
 H     13   5   4     2.086311672273   106.48012144    40.79991191
 C      6   4   3     2.860666461537   120.17351807     4.71242041
 H     15   6   4     2.087926668986   107.53686696   323.02091362
 C     13   5   4     2.888638296613   111.11681299   285.15705855
 H     17  13   5     2.082259264684   111.25093428   296.71874128
 H     17  13   5     2.079711995945   111.98802041    57.26100089
 H     17  13   5     2.081268593330   110.81618608   177.18969062
 C     13   5   4     2.870047077356   113.60258164   159.14126264
 H     21  13   5     2.077709589683   110.51376090   187.44672454
 H     21  13   5     2.078854264233   112.19885797   307.39878391
 H     21  13   5     2.080621060460   112.10607229    68.60512065
 C     15   6   4     2.890299053277   109.92603763    78.85915714
 H     25  15   6     2.081980384664   112.18572591   302.59547662
 H     25  15   6     2.081695804237   110.77095604    62.75374493
 H     25  15   6     2.080454963240   111.11595971   182.27973670
 C     15   6   4     2.870685072292   113.72772274   204.51187434
 H     29  15   6     2.080067341960   111.97410190    54.08205893
 H     29  15   6     2.077595999682   110.35217415   173.63005735
 H     29  15   6     2.080330967113   112.42318031   292.65780133
 C      1   2   3     3.936490532991    82.55246880    43.30803456
 N     33   1   2     2.258729868844   168.39404279   337.30554865
 C     34  33   1     2.581323370585   166.14883655    70.36725073
 C     35  34  33     2.673419725769   118.95824320   207.45464220
 C     35  34  33     2.677877567135   118.45895369    24.76369318
 C     36  35  34     2.638700419343   117.50269165   180.10177699
 C     36  35  34     2.859307831269   119.26202544     4.54388730
 C     37  35  34     2.638326031440   117.36598031   180.28178818
 C     37  35  34     2.859146103716   119.57514317   359.60127175
 C     38  36  35     2.635665074423   121.01114584   358.89113005
 H     38  36  35     2.064565415177   119.59027913   179.48896441
 H     39  36  35     2.090267984858   106.98539637   318.06992160
 C     39  36  35     2.869199297950   114.07104382   198.71326931
 C     39  36  35     2.891550880716   109.68151593    73.91530736
 H     40  37  35     2.064836404117   119.45463073   179.94134172
 H     41  37  35     2.092595465030   106.52511672   320.61490877
 C     41  37  35     2.887063073688   111.17391623    76.74940063
 C     41  37  35     2.870524682015   113.42266459   203.03109949
 H     42  38  36     2.064961856229   119.78901769   179.94056567
 H     45  39  36     2.080303166254   112.00925599   293.78875454
 H     45  39  36     2.078665858676   112.32666891    55.10291127
 H     45  39  36     2.078312636272   110.39709511   175.28261552
 H     46  39  36     2.080484464590   111.06450159   181.70317274
 H     46  39  36     2.080938732043   112.10500754   302.18404835
 H     46  39  36     2.082801007617   110.76111705    62.56248789
 H     49  41  37     2.077317034719   112.41499661   307.44311933
 H     49  41  37     2.081726479063   110.87781273    67.84086987
 H     49  41  37     2.077660032066   111.04739120   187.51704749
 H     50  41  37     2.078885745628   112.05993302    50.50140794
 H     50  41  37     2.077197481558   110.33555431   169.98274746
 H     50  41  37     2.081065905975   112.27356248   289.17890389
 C      1   2   3     3.946753217673    89.17157192   318.60397914
 N     64   1   2     2.258862216252   173.46246862    88.33979073
 C     65  64   1     2.588122955531   165.73059327    15.44395645
 C     66  65  64     2.674556213644   118.80197687   223.10993515
 C     66  65  64     2.679382312985   118.84473977    40.96821648
 C     67  66  65     2.638357346421   117.69744772   177.24749275
 C     67  66  65     2.857992681079   119.56850157     0.00000000
 C     68  66  65     2.639471068152   117.37536013   183.03550460
 C     68  66  65     2.859529618343   120.27673616     5.11824307
 C     69  67  66     2.634037482491   121.03714638   359.85996881
 H     69  67  66     2.064432437086   119.48620683   180.17105869
 H     70  67  66     2.089934316718   106.34896798   319.47623561
 C     70  67  66     2.869478745722   114.00905446   200.96913065
 C     70  67  66     2.888866037684   110.41928480    75.28016066
 H     71  68  66     2.064770369509   119.36629382   179.59230976
 H     72  68  66     2.090550675240   107.29687435   321.30096800
 C     72  68  66     2.888432063304   109.89444506    77.80230221
 C     72  68  66     2.871933072671   113.98623471   202.41173124
 H     73  69  67     2.064886559251   119.87205876   180.30732710
 H     76  70  67     2.080342952390   112.14346463   291.30058564
 H     76  70  67     2.078713557881   112.30870837    52.70826973
 H     76  70  67     2.078583891225   110.23201607   172.61886993
 H     77  70  67     2.081510265046   111.27970234   179.52133743
 H     77  70  67     2.077541033556   111.66373236   299.49429145
 H     77  70  67     2.083172077828   111.08562696    59.94907576
 H     80  72  68     2.079536615909   112.35389353   300.05856856
 H     80  72  68     2.081429416847   110.72454213    60.36412986
 H     80  72  68     2.078522412224   110.96278407   179.41087648
 H     81  72  68     2.078520945544   112.49029153    52.68608929
 H     81  72  68     2.078545109427   110.13821049   172.53087352
 H     81  72  68     2.080433720375   112.17908634   291.18036376
 C      1   2   3     3.956656890027   173.59972773   297.78795914
 N     95   1   2     2.258307603529   172.47712412   355.70214150
 C     96  95   1     2.584342294418   166.01401325   318.83680501
 C     97  96  95     2.679509563446   118.68999716   351.48534190
 C     97  96  95     2.674591808963   118.85011015   168.51745427
 C     98  97  96     2.639386193215   117.29840267   179.56528079
 C     98  97  96     2.861537412455   120.36504426   359.00463384
 C     99  97  96     2.637880284708   117.62417304   180.35132134
 C     99  97  96     2.860053557634   119.63140522   359.65756342
 C    102  99  97     2.634358691723   121.03329682     0.84237562
 H    100  98  97     2.064697999396   119.34233069   179.89814894
 H    101  98  97     2.090648472931   107.13456054    37.08989457
 C    101  98  97     2.887215632260   110.65125733   280.66622912
 C    101  98  97     2.871166788573   113.58008994   155.38140290
 H    102  99  97     2.064517753420   119.51762890   180.00581527
 H    103  99  97     2.090475413127   106.36475027   323.96349715
 C    103  99  97     2.884712324897   111.07551136    80.08960841
 C    103  99  97     2.871600540853   113.39476101   205.93723237
 H    104 102  99     2.064897392056   119.85362678   179.93090091
 H    107 101  98     2.082117675136   110.83226756   301.28710183
 H    107 101  98     2.079602385516   112.08492682    61.92151602
 H    107 101  98     2.079026268519   110.82125156   182.01254926
 H    108 101  98     2.079111857859   110.14203041   187.87570499
 H    108 101  98     2.078770651491   112.19183719   307.59713268
 H    108 101  98     2.080213601653   112.30767796    69.08912957
 H    111 103  99     2.076203726389   111.98215749   303.31663661
 H    111 103  99     2.081198750104   110.99538261    63.63874303
 H    111 103  99     2.078640779800   110.99611334   183.24760424
 H    112 103  99     2.079390919879   112.22553295    51.79301297
 H    112 103  99     2.077640552153   110.41306062   171.78062046
 H    112 103  99     2.080263856414   112.13410154   290.62719940
 C      1   2   3     3.935443222096    86.81339348   225.09803828
 N    126   1   2     2.260481653170   175.06070372   349.00245263
 C    127 126   1     2.584530547775   166.44631790    52.42192000
 C    128 127 126     2.680979057474   118.57583420    26.02436718
 C    128 127 126     2.677306991630   119.10093299   205.84977992
 C    129 128 127     2.638326529316   117.52583967   181.64168905
 C    129 128 127     2.859823357337   120.01014566   359.70158850
 C    130 128 127     2.639702822433   117.41881618   178.14213083
 C    130 128 127     2.863419476319   119.99801295   358.53381909
 C    131 129 128     2.633656750911   121.13793682   359.68581569
 H    131 129 128     2.064604070840   119.40872083   179.83480443
 H    132 129 128     2.091452601491   106.96379519    38.45002276
 C    132 129 128     2.886986026570   110.17859592   282.28476544
 C    132 129 128     2.870920387112   113.74695570   157.05788743
 H    133 130 128     2.063351331099   119.52018305   180.26519329
 H    134 130 128     2.092300842452   106.35839901   316.86534897
 C    134 130 128     2.887753830378   111.81525515    72.96687237
 C    134 130 128     2.870861420185   113.08441188   198.55947299
 H    135 131 129     2.064847818035   119.86323977   179.83607584
 H    138 132 129     2.082736885843   110.96007345   294.22194181
 H    138 132 129     2.074778087851   111.90826477    54.42066320
 H    138 132 129     2.078572909240   111.38584674   174.17943842
 H    139 132 129     2.077924711417   110.33630034   187.22434470
 H    139 132 129     2.078560425411   112.26096167   307.03251526
 H    139 132 129     2.080179318370   112.14639514    68.42768649
 H    142 134 130     2.078635424943   112.37672937   303.70040649
 H    142 134 130     2.081849110107   111.03228271    64.74735437
 H    142 134 130     2.081856580309   110.70580649   183.67649203
 H    143 134 130     2.078514816548   112.32929117    54.29241206
 H    143 134 130     2.076464649405   110.69146521   174.48871835
 H    143 134 130     2.080035935883   111.89719789   293.10759483
 C      1   2   3     3.954895743678    92.21197661   136.74416206
 N    157   1   2     2.264757893737   176.72968704    78.94834248
 C    158 157   1     2.592912164609   162.07539984    51.14865702
 C    159 158 157     2.671738084423   120.01478353   190.13288729
 C    159 158 157     2.689871067275   118.35667439     9.21964067
 C    160 159 158     2.642717976866   117.98698628   178.14073012
 C    160 159 158     2.858280160267   122.22480842   357.20997299
 C    161 159 158     2.636122642963   117.68360174   181.84021124
 C    161 159 158     2.860453013446   120.41669766     3.45912743
 C    162 160 159     2.626691910738   121.32799163     0.24428749
 H    162 160 159     2.067173563083   118.93180785   180.21788290
 H    163 160 159     2.085826932240   107.56692334     0.97813217
 C    163 160 159     2.883888558536   110.56229601   243.00222511
 C    163 160 159     2.880370546742   111.76597293   119.10077818
 H    164 161 159     2.063702140468   119.36165087   179.77595863
 H    165 161 159     2.094323928833   107.19397919   317.49207915
 C    165 161 159     2.888858537560   110.61371902    74.27669805
 C    165 161 159     2.870759501981   113.45028638   198.79875259
 H    166 162 160     2.064792059701   120.15023574   180.17090397
 H    169 163 160     2.080964762697   111.18236394   294.72837203
 H    169 163 160     2.078305786434   112.11356751    54.71248556
 H    169 163 160     2.079296358354   111.38905324   175.45355619
 H    170 163 160     2.079760771988   111.00035376   185.23219442
 H    170 163 160     2.075940212764   112.03646492   305.63505551
 H    170 163 160     2.081036077251   111.43328617    65.96152735
 H    173 165 161     2.077879542293   112.59175555   301.99041241
 H    173 165 161     2.081758306483   110.67090607    62.47648133
 H    173 165 161     2.080273677979   110.82059290   181.43512474
 H    174 165 161     2.077904253498   112.26193750    51.53463995
 H    174 165 161     2.077509994855   110.56740958   171.77283862
 H    174 165 161     2.080686671466   111.99356457   290.57281907

---------------------
BASIS SET INFORMATION
---------------------
There are 4 groups of distinct atoms

 Group   1 Type W   : 7s6p5d1f contracted to 6s3p2d1f pattern {211111/411/41/1}
 Group   2 Type C   : 7s4p1d contracted to 3s2p1d pattern {511/31/1}
 Group   3 Type N   : 7s4p1d contracted to 3s2p1d pattern {511/31/1}
 Group   4 Type H   : 4s1p contracted to 2s1p pattern {31/1}

Atom   0W    basis set group =>   1
Atom   1C    basis set group =>   2
Atom   2N    basis set group =>   3
Atom   3C    basis set group =>   2
Atom   4C    basis set group =>   2
Atom   5C    basis set group =>   2
Atom   6C    basis set group =>   2
Atom   7C    basis set group =>   2
Atom   8C    basis set group =>   2
Atom   9H    basis set group =>   4
Atom  10H    basis set group =>   4
Atom  11H    basis set group =>   4
Atom  12C    basis set group =>   2
Atom  13H    basis set group =>   4
Atom  14C    basis set group =>   2
Atom  15H    basis set group =>   4
Atom  16C    basis set group =>   2
Atom  17H    basis set group =>   4
Atom  18H    basis set group =>   4
Atom  19H    basis set group =>   4
Atom  20C    basis set group =>   2
Atom  21H    basis set group =>   4
Atom  22H    basis set group =>   4
Atom  23H    basis set group =>   4
Atom  24C    basis set group =>   2
Atom  25H    basis set group =>   4
Atom  26H    basis set group =>   4
Atom  27H    basis set group =>   4
Atom  28C    basis set group =>   2
Atom  29H    basis set group =>   4
Atom  30H    basis set group =>   4
Atom  31H    basis set group =>   4
Atom  32C    basis set group =>   2
Atom  33N    basis set group =>   3
Atom  34C    basis set group =>   2
Atom  35C    basis set group =>   2
Atom  36C    basis set group =>   2
Atom  37C    basis set group =>   2
Atom  38C    basis set group =>   2
Atom  39C    basis set group =>   2
Atom  40C    basis set group =>   2
Atom  41C    basis set group =>   2
Atom  42H    basis set group =>   4
Atom  43H    basis set group =>   4
Atom  44C    basis set group =>   2
Atom  45C    basis set group =>   2
Atom  46H    basis set group =>   4
Atom  47H    basis set group =>   4
Atom  48C    basis set group =>   2
Atom  49C    basis set group =>   2
Atom  50H    basis set group =>   4
Atom  51H    basis set group =>   4
Atom  52H    basis set group =>   4
Atom  53H    basis set group =>   4
Atom  54H    basis set group =>   4
Atom  55H    basis set group =>   4
Atom  56H    basis set group =>   4
Atom  57H    basis set group =>   4
Atom  58H    basis set group =>   4
Atom  59H    basis set group =>   4
Atom  60H    basis set group =>   4
Atom  61H    basis set group =>   4
Atom  62H    basis set group =>   4
Atom  63C    basis set group =>   2
Atom  64N    basis set group =>   3
Atom  65C    basis set group =>   2
Atom  66C    basis set group =>   2
Atom  67C    basis set group =>   2
Atom  68C    basis set group =>   2
Atom  69C    basis set group =>   2
Atom  70C    basis set group =>   2
Atom  71C    basis set group =>   2
Atom  72C    basis set group =>   2
Atom  73H    basis set group =>   4
Atom  74H    basis set group =>   4
Atom  75C    basis set group =>   2
Atom  76C    basis set group =>   2
Atom  77H    basis set group =>   4
Atom  78H    basis set group =>   4
Atom  79C    basis set group =>   2
Atom  80C    basis set group =>   2
Atom  81H    basis set group =>   4
Atom  82H    basis set group =>   4
Atom  83H    basis set group =>   4
Atom  84H    basis set group =>   4
Atom  85H    basis set group =>   4
Atom  86H    basis set group =>   4
Atom  87H    basis set group =>   4
Atom  88H    basis set group =>   4
Atom  89H    basis set group =>   4
Atom  90H    basis set group =>   4
Atom  91H    basis set group =>   4
Atom  92H    basis set group =>   4
Atom  93H    basis set group =>   4
Atom  94C    basis set group =>   2
Atom  95N    basis set group =>   3
Atom  96C    basis set group =>   2
Atom  97C    basis set group =>   2
Atom  98C    basis set group =>   2
Atom  99C    basis set group =>   2
Atom 100C    basis set group =>   2
Atom 101C    basis set group =>   2
Atom 102C    basis set group =>   2
Atom 103C    basis set group =>   2
Atom 104H    basis set group =>   4
Atom 105H    basis set group =>   4
Atom 106C    basis set group =>   2
Atom 107C    basis set group =>   2
Atom 108H    basis set group =>   4
Atom 109H    basis set group =>   4
Atom 110C    basis set group =>   2
Atom 111C    basis set group =>   2
Atom 112H    basis set group =>   4
Atom 113H    basis set group =>   4
Atom 114H    basis set group =>   4
Atom 115H    basis set group =>   4
Atom 116H    basis set group =>   4
Atom 117H    basis set group =>   4
Atom 118H    basis set group =>   4
Atom 119H    basis set group =>   4
Atom 120H    basis set group =>   4
Atom 121H    basis set group =>   4
Atom 122H    basis set group =>   4
Atom 123H    basis set group =>   4
Atom 124H    basis set group =>   4
Atom 125C    basis set group =>   2
Atom 126N    basis set group =>   3
Atom 127C    basis set group =>   2
Atom 128C    basis set group =>   2
Atom 129C    basis set group =>   2
Atom 130C    basis set group =>   2
Atom 131C    basis set group =>   2
Atom 132C    basis set group =>   2
Atom 133C    basis set group =>   2
Atom 134C    basis set group =>   2
Atom 135H    basis set group =>   4
Atom 136H    basis set group =>   4
Atom 137C    basis set group =>   2
Atom 138C    basis set group =>   2
Atom 139H    basis set group =>   4
Atom 140H    basis set group =>   4
Atom 141C    basis set group =>   2
Atom 142C    basis set group =>   2
Atom 143H    basis set group =>   4
Atom 144H    basis set group =>   4
Atom 145H    basis set group =>   4
Atom 146H    basis set group =>   4
Atom 147H    basis set group =>   4
Atom 148H    basis set group =>   4
Atom 149H    basis set group =>   4
Atom 150H    basis set group =>   4
Atom 151H    basis set group =>   4
Atom 152H    basis set group =>   4
Atom 153H    basis set group =>   4
Atom 154H    basis set group =>   4
Atom 155H    basis set group =>   4
Atom 156C    basis set group =>   2
Atom 157N    basis set group =>   3
Atom 158C    basis set group =>   2
Atom 159C    basis set group =>   2
Atom 160C    basis set group =>   2
Atom 161C    basis set group =>   2
Atom 162C    basis set group =>   2
Atom 163C    basis set group =>   2
Atom 164C    basis set group =>   2
Atom 165C    basis set group =>   2
Atom 166H    basis set group =>   4
Atom 167H    basis set group =>   4
Atom 168C    basis set group =>   2
Atom 169C    basis set group =>   2
Atom 170H    basis set group =>   4
Atom 171H    basis set group =>   4
Atom 172C    basis set group =>   2
Atom 173C    basis set group =>   2
Atom 174H    basis set group =>   4
Atom 175H    basis set group =>   4
Atom 176H    basis set group =>   4
Atom 177H    basis set group =>   4
Atom 178H    basis set group =>   4
Atom 179H    basis set group =>   4
Atom 180H    basis set group =>   4
Atom 181H    basis set group =>   4
Atom 182H    basis set group =>   4
Atom 183H    basis set group =>   4
Atom 184H    basis set group =>   4
Atom 185H    basis set group =>   4
Atom 186H    basis set group =>   4
---------------------------------
AUXILIARY/J BASIS SET INFORMATION
---------------------------------
There are 4 groups of distinct atoms

 Group   1 Type W   : 11s5p5d3f3g contracted to 8s5p5d2f3g pattern {41111111/11111/11111/21/111}
 Group   2 Type C   : 12s5p4d2f1g contracted to 6s4p3d1f1g pattern {711111/2111/211/2/1}
 Group   3 Type N   : 12s5p4d2f1g contracted to 6s4p3d1f1g pattern {711111/2111/211/2/1}
 Group   4 Type H   : 5s2p1d contracted to 3s1p1d pattern {311/2/1}

Atom   0W    basis set group =>   1
Atom   1C    basis set group =>   2
Atom   2N    basis set group =>   3
Atom   3C    basis set group =>   2
Atom   4C    basis set group =>   2
Atom   5C    basis set group =>   2
Atom   6C    basis set group =>   2
Atom   7C    basis set group =>   2
Atom   8C    basis set group =>   2
Atom   9H    basis set group =>   4
Atom  10H    basis set group =>   4
Atom  11H    basis set group =>   4
Atom  12C    basis set group =>   2
Atom  13H    basis set group =>   4
Atom  14C    basis set group =>   2
Atom  15H    basis set group =>   4
Atom  16C    basis set group =>   2
Atom  17H    basis set group =>   4
Atom  18H    basis set group =>   4
Atom  19H    basis set group =>   4
Atom  20C    basis set group =>   2
Atom  21H    basis set group =>   4
Atom  22H    basis set group =>   4
Atom  23H    basis set group =>   4
Atom  24C    basis set group =>   2
Atom  25H    basis set group =>   4
Atom  26H    basis set group =>   4
Atom  27H    basis set group =>   4
Atom  28C    basis set group =>   2
Atom  29H    basis set group =>   4
Atom  30H    basis set group =>   4
Atom  31H    basis set group =>   4
Atom  32C    basis set group =>   2
Atom  33N    basis set group =>   3
Atom  34C    basis set group =>   2
Atom  35C    basis set group =>   2
Atom  36C    basis set group =>   2
Atom  37C    basis set group =>   2
Atom  38C    basis set group =>   2
Atom  39C    basis set group =>   2
Atom  40C    basis set group =>   2
[...]
   310a -> 317a  :     0.057478 
   310a -> 318a  :     0.044823 
   310a -> 319a  :     0.017511 
   310a -> 325a  :     0.083862 
   310a -> 326a  :     0.302603 
   310a -> 327a  :     0.018037 
   310a -> 356a  :     0.012943 
   312a -> 327a  :     0.052241 
   312a -> 328a  :     0.022728 

STATE 33:  E=   0.182796 au      4.974 eV    40119.1 cm**-1 <S**2> =   0.000000
   311a -> 316a  :     0.058935 
   311a -> 327a  :     0.274575 
   311a -> 328a  :     0.150210 
   311a -> 330a  :     0.032043 
   311a -> 333a  :     0.032398 
   311a -> 351a  :     0.040044 
   312a -> 316a  :     0.019930 
   312a -> 327a  :     0.090911 
   312a -> 328a  :     0.055959 
   312a -> 330a  :     0.010576 
   312a -> 333a  :     0.011239 
   312a -> 351a  :     0.013479 

STATE 34:  E=   0.201218 au      5.475 eV    44162.3 cm**-1 <S**2> =   0.000000
   298a -> 315a  :     0.015711 
   300a -> 316a  :     0.062791 
   307a -> 316a  :     0.010920 
   309a -> 315a  :     0.019451 
   310a -> 328a  :     0.010304 
   310a -> 329a  :     0.021810 
   310a -> 365a  :     0.014775 
   311a -> 329a  :     0.028250 
   311a -> 331a  :     0.025778 
   311a -> 332a  :     0.014329 
   312a -> 317a  :     0.028613 
   312a -> 329a  :     0.129504 
   312a -> 331a  :     0.105710 
   312a -> 333a  :     0.027271 
   312a -> 357a  :     0.012521 
   312a -> 358a  :     0.016766 
   312a -> 371a  :     0.016067 

STATE 35:  E=   0.202636 au      5.514 eV    44473.4 cm**-1 <S**2> =   0.000000
   308a -> 317a  :     0.010216 
   311a -> 326a  :     0.025521 
   311a -> 329a  :     0.015243 
   311a -> 331a  :     0.011736 
   311a -> 332a  :     0.049350 
   311a -> 334a  :     0.036441 
   311a -> 359a  :     0.013669 
   312a -> 326a  :     0.021876 
   312a -> 327a  :     0.022758 
   312a -> 328a  :     0.033046 
   312a -> 329a  :     0.018941 
   312a -> 332a  :     0.038791 
   312a -> 334a  :     0.096275 
   312a -> 335a  :     0.010978 
   312a -> 336a  :     0.012305 
   312a -> 354a  :     0.036540 
   312a -> 357a  :     0.021084 
   312a -> 358a  :     0.013889 
   312a -> 359a  :     0.010943 
   312a -> 371a  :     0.013329 

STATE 36:  E=   0.206660 au      5.623 eV    45356.6 cm**-1 <S**2> =   0.000000
   298a -> 317a  :     0.023616 
   298a -> 318a  :     0.020210 
   299a -> 314a  :     0.028958 
   304a -> 321a  :     0.013399 
   308a -> 314a  :     0.098033 
   308a -> 318a  :     0.015818 
   309a -> 315a  :     0.020681 
   310a -> 329a  :     0.088016 
   310a -> 331a  :     0.055759 
   310a -> 332a  :     0.024247 
   311a -> 328a  :     0.023945 
   311a -> 332a  :     0.036671 
   311a -> 334a  :     0.037327 
   312a -> 333a  :     0.010442 

STATE 37:  E=   0.207298 au      5.641 eV    45496.6 cm**-1 <S**2> =   0.000000
   298a -> 317a  :     0.033872 
   299a -> 318a  :     0.037283 
   300a -> 313a  :     0.018992 
   303a -> 324a  :     0.011218 
   305a -> 323a  :     0.013023 
   307a -> 313a  :     0.050031 
   307a -> 316a  :     0.018325 
   308a -> 314a  :     0.064389 
   309a -> 313a  :     0.022477 
   309a -> 314a  :     0.014837 
   309a -> 315a  :     0.023739 
   309a -> 318a  :     0.020831 
   310a -> 329a  :     0.096672 
   310a -> 331a  :     0.061378 
   310a -> 332a  :     0.027987 
   310a -> 368a  :     0.013433 
   310a -> 371a  :     0.011369 
   311a -> 328a  :     0.011879 
   312a -> 327a  :     0.010846 
   312a -> 332a  :     0.015428 
   312a -> 334a  :     0.012689 

STATE 38:  E=   0.207573 au      5.648 eV    45556.9 cm**-1 <S**2> =   0.000000
   298a -> 318a  :     0.011105 
   299a -> 313a  :     0.016590 
   299a -> 314a  :     0.021132 
   299a -> 317a  :     0.014800 
   299a -> 318a  :     0.013737 
   300a -> 313a  :     0.010487 
   303a -> 323a  :     0.014626 
   305a -> 323a  :     0.019806 
   307a -> 313a  :     0.040867 
   307a -> 318a  :     0.014256 
   308a -> 318a  :     0.013620 
   309a -> 313a  :     0.037325 
   309a -> 317a  :     0.011517 
   309a -> 318a  :     0.011871 
   310a -> 325a  :     0.013764 
   310a -> 327a  :     0.031008 
   310a -> 329a  :     0.018237 
   310a -> 331a  :     0.034665 
   310a -> 333a  :     0.027474 
   310a -> 334a  :     0.013981 
   311a -> 326a  :     0.010992 
   311a -> 327a  :     0.043319 
   311a -> 334a  :     0.031062 
   312a -> 328a  :     0.017452 
   312a -> 330a  :     0.012912 
   312a -> 333a  :     0.038504 

STATE 39:  E=   0.207881 au      5.657 eV    45624.7 cm**-1 <S**2> =   0.000000
   299a -> 313a  :     0.014362 
   299a -> 318a  :     0.012606 
   300a -> 313a  :     0.011996 
   302a -> 324a  :     0.013965 
   307a -> 313a  :     0.034482 
   307a -> 317a  :     0.012839 
   307a -> 318a  :     0.015153 
   310a -> 325a  :     0.014874 
   310a -> 326a  :     0.015944 
   310a -> 329a  :     0.013655 
   310a -> 331a  :     0.018305 
   310a -> 333a  :     0.027304 
   310a -> 358a  :     0.010252 
   311a -> 330a  :     0.028709 
   311a -> 332a  :     0.017201 
   311a -> 333a  :     0.080642 
   311a -> 334a  :     0.011938 
   311a -> 337a  :     0.012548 
   311a -> 351a  :     0.013168 
   311a -> 354a  :     0.010042 
   311a -> 356a  :     0.010846 
   311a -> 359a  :     0.011002 
   311a -> 362a  :     0.014170 
   311a -> 365a  :     0.022475 
   312a -> 328a  :     0.013150 
   312a -> 332a  :     0.018983 
   312a -> 333a  :     0.015969 

STATE 40:  E=   0.211743 au      5.762 eV    46472.3 cm**-1 <S**2> =   0.000000
   298a -> 314a  :     0.071503 
   299a -> 313a  :     0.051316 
   305a -> 324a  :     0.010480 
   307a -> 314a  :     0.030286 
   308a -> 313a  :     0.014834 
   308a -> 315a  :     0.010407 
   308a -> 317a  :     0.010210 
   308a -> 318a  :     0.032514 
   309a -> 313a  :     0.010722 
   309a -> 314a  :     0.034564 
   309a -> 315a  :     0.011743 
   309a -> 316a  :     0.012866 
   309a -> 317a  :     0.020439 
   311a -> 328a  :     0.021978 
   312a -> 334a  :     0.027769 
   312a -> 353a  :     0.012512 
   312a -> 354a  :     0.024541 


-------------------------
TD-DFT-EXCITATION SPECTRA
-------------------------

Center of mass = ( -0.0024,  0.0209, -0.0135)
Calculating the Dipole integrals                  ... done
Transforming integrals                            ... done
Calculating the Linear Momentum integrals         ... done
Transforming integrals                            ... done
Calculating angular momentum integrals            ... done
Transforming integrals                            ... done

-----------------------------------------------------------------------------
         ABSORPTION SPECTRUM VIA TRANSITION ELECTRIC DIPOLE MOMENTS
-----------------------------------------------------------------------------
State   Energy    Wavelength  fosc         T2        TX        TY        TZ  
        (cm-1)      (nm)                 (au**2)    (au)      (au)      (au) 
-----------------------------------------------------------------------------
   1   23040.8    434.0   0.004035180   0.05766   0.23004  -0.06776   0.01204
   2   23165.2    431.7   0.004908238   0.06975  -0.04495  -0.25976   0.01607
   3   23763.2    420.8   0.104280697   1.44469  -0.50489   0.13526   1.08235
   4   23772.1    420.7   0.015919950   0.22047  -0.11487   0.31939  -0.32444
   5   24236.3    412.6   0.116684887   1.58498  -0.68847   0.92828   0.49928
   6   24400.9    409.8   0.041632945   0.56170  -0.29391  -0.62726   0.28611
   7   26281.6    380.5   0.340324366   4.26302   1.77217   0.22546   1.03519
   8   26773.1    373.5   0.395232930   4.85992   0.03229  -2.02753   0.86487
   9   26755.7    373.8   0.218467587   2.68810  -1.02374  -0.19195   1.26618
  10   27225.7    367.3   0.195791716   2.36751   1.02869  -0.96893  -0.60867
  11   28371.1    352.5   0.147432139   1.71077   1.20184   0.51603   0.00785
  12   29219.1    342.2   0.169187799   1.90624   0.34412  -1.33620  -0.04889
  13   29437.6    339.7   0.299320302   3.34742  -1.74986   0.53408  -0.01250
  14   29922.1    334.2   0.433518848   4.76971  -1.58204  -1.22900  -0.86972
  15   31203.5    320.5   0.613204141   6.46959   1.25744   1.74848   1.35324
  16   31432.5    318.1   0.229350778   2.40213   0.95506   1.21871  -0.06887
  17   32069.2    311.8   0.977345569  10.03311  -1.51359   2.48719  -1.24741
  18   32559.5    307.1   0.867604885   8.77243   1.99321  -0.20352  -2.18131
  19   34974.0    285.9   0.034490748   0.32466  -0.18828   0.53040  -0.08880
  20   35332.2    283.0   0.028236310   0.26309   0.14412   0.13857  -0.47236
  21   36466.9    274.2   0.174125250   1.57195  -0.85634   0.58458   0.70491
  22   37167.3    269.1   0.093307138   0.82647   0.33879   0.45881  -0.70794
  23   37511.0    266.6   0.032653503   0.28658   0.07810   0.52061  -0.09719
  24   37954.9    263.5   0.056596240   0.49090   0.26772  -0.61623   0.19871
  25   38628.6    258.9   0.006263953   0.05338  -0.07678   0.18614  -0.11333
  26   39371.5    254.0   0.046992285   0.39293  -0.56858  -0.03338  -0.26179
  27   39072.3    255.9   0.022639130   0.19075   0.34378  -0.19294   0.18798
  28   39147.8    255.4   0.000877641   0.00738   0.08557  -0.00183  -0.00746
  29   39246.8    254.8   0.000757638   0.00636   0.04267   0.01447  -0.06576
  30   39234.4    254.9   0.000994670   0.00835  -0.02486   0.07020  -0.05292
  31   39384.8    253.9   0.035380195   0.29574   0.44305   0.27402   0.15605
  32   38387.4    260.5   0.060799505   0.52142   0.57081   0.29977   0.32516
  33   40119.1    249.3   0.020031727   0.16438  -0.17149   0.24181   0.27658
  34   44162.3    226.4   0.009946163   0.07414   0.22242   0.13307   0.08346
  35   44473.4    224.9   0.046005687   0.34055  -0.11076   0.41954  -0.39022
  36   45356.6    220.5   0.076309719   0.55388  -0.63376  -0.11732  -0.37210
  37   45496.6    219.8   0.096943859   0.70148   0.35944   0.37395   0.65761
  38   45556.9    219.5   0.100176652   0.72392  -0.73645  -0.39529  -0.15905
  39   45624.7    219.2   0.086599756   0.62487   0.37853  -0.57748  -0.38485
  40   46472.3    215.2   0.014772354   0.10465   0.17731   0.25877  -0.07905

-----------------------------------------------------------------------------
         ABSORPTION SPECTRUM VIA TRANSITION VELOCITY DIPOLE MOMENTS
-----------------------------------------------------------------------------
State   Energy    Wavelength   fosc        P2         PX        PY        PZ  
        (cm-1)      (nm)                 (au**2)     (au)      (au)      (au) 
-----------------------------------------------------------------------------
   1   23040.8    434.0   0.004147195   0.00065  -0.02458   0.00697  -0.00063
   2   23165.2    431.7   0.005330902   0.00084   0.00498   0.02855  -0.00201
   3   23763.2    420.8   0.113533736   0.01844   0.05696  -0.01506  -0.12234
   4   23772.1    420.7   0.017891088   0.00291   0.01322  -0.03647   0.03745
   5   24236.3    412.6   0.126635571   0.02098   0.07911  -0.10678  -0.05758
   6   24400.9    409.8   0.044100828   0.00735   0.03335   0.07217  -0.03216
   7   26281.6    380.5   0.390920018   0.07022  -0.22783  -0.02841  -0.13230
   8   26773.1    373.5   0.453490290   0.08298  -0.00411   0.26492  -0.11306
   9   26755.7    373.8   0.250557323   0.04582   0.13360   0.02385  -0.16553
  10   27225.7    367.3   0.223163227   0.04152  -0.13686   0.12737   0.08105
  11   28371.1    352.5   0.162121996   0.03144  -0.16275  -0.07030  -0.00244
  12   29219.1    342.2   0.192404105   0.03842  -0.04862   0.18976   0.00693
  13   29437.6    339.7   0.356430712   0.07171   0.25592  -0.07885   0.00003
  14   29922.1    334.2   0.520912966   0.10653   0.23674   0.18401   0.12892
  15   31203.5    320.5   0.721199991   0.15380  -0.19447  -0.26971  -0.20794
  16   31432.5    318.1   0.267014916   0.05736  -0.14774  -0.18823   0.01015
  17   32069.2    311.8   1.149264288   0.25189   0.23940  -0.39466   0.19703
  18   32559.5    307.1   1.023989737   0.22787  -0.32068   0.03316   0.35203
  19   34974.0    285.9   0.038849162   0.00929   0.03169  -0.08953   0.01630
  20   35332.2    283.0   0.033792106   0.00816  -0.02468  -0.02415   0.08347
  21   36466.9    274.2   0.205091838   0.05112   0.15474  -0.10555  -0.12661
  22   37167.3    269.1   0.109125798   0.02772  -0.06117  -0.08343   0.13045
  23   37511.0    266.6   0.036951934   0.00947  -0.01296  -0.09494   0.01711
  24   37954.9    263.5   0.066720471   0.01731  -0.05029   0.11541  -0.03818
  25   38628.6    258.9   0.006658212   0.00176   0.01325  -0.03382   0.02094
  26   39371.5    254.0   0.052333158   0.01408   0.10736   0.00880   0.04978
  27   39072.3    255.9   0.024399963   0.00652  -0.06354   0.03535  -0.03506
  28   39147.8    255.4   0.000970899   0.00026  -0.01611   0.00002   0.00058
  29   39246.8    254.8   0.000822163   0.00022  -0.00766  -0.00352   0.01222
  30   39234.4    254.9   0.001061884   0.00028   0.00491  -0.01298   0.00960
  31   39384.8    253.9   0.039547967   0.01065  -0.08415  -0.05158  -0.03007
  32   38387.4    260.5   0.072858484   0.01912  -0.10930  -0.05605  -0.06345
  33   40119.1    249.3   0.023145861   0.00635   0.03845  -0.04673  -0.05181
  34   44162.3    226.4   0.010242042   0.00309  -0.04534  -0.02761  -0.01654
  35   44473.4    224.9   0.047320972   0.01438   0.02206  -0.08640   0.08020
  36   45356.6    220.5   0.075698024   0.02347   0.13058   0.02373   0.07650
  37   45496.6    219.8   0.094897991   0.02951  -0.07355  -0.07649  -0.13508
  38   45556.9    219.5   0.101114636   0.03148   0.15426   0.08097   0.03362
  39   45624.7    219.2   0.086338863   0.02692  -0.08031   0.11911   0.07928
  40   46472.3    215.2   0.014174892   0.00450  -0.03830  -0.05332   0.01389

-------------------------------------------------------------------
                             CD SPECTRUM
-------------------------------------------------------------------
State  Energy     Wavelength     R         MX        MY        MZ   
       (cm-1)       (nm)     (1e40*cgs)   (au)      (au)      (au)  
-------------------------------------------------------------------
   1   23040.8    434.0      3.22087   0.03287   0.01700   0.03502
   2   23165.2    431.7      3.72213  -0.01404  -0.02991  -0.03147
   3   23763.2    420.8     27.49187  -0.00539   0.09228   0.03983
   4   23772.1    420.7     20.67647  -0.04264   0.09077  -0.03072
   5   24236.3    412.6      9.43768   0.05085   0.02171   0.06985
   6   24400.9    409.8      3.04563  -0.05379   0.01395  -0.00209
   7   26281.6    380.5    -67.65410  -0.03309  -0.10184  -0.05979
   8   26773.1    373.5    -15.55212  -0.10503   0.00701  -0.01779
   9   26755.7    373.8     35.96915   0.01401   0.13554   0.09213
  10   27225.7    367.3     13.88517  -0.07044  -0.01821  -0.13845
  11   28371.1    352.5     -2.89917   0.00900  -0.03157  -0.08670
  12   29219.1    342.2     61.46255  -0.10915  -0.12699   0.03599
  13   29437.6    339.7    -90.92282   0.14243   0.10868   0.13397
  14   29922.1    334.2    -75.63593  -0.01385   0.09596   0.07405
  15   31203.5    320.5    125.20375   0.20588  -0.01635   0.02607
  16   31432.5    318.1     34.13423   0.02393   0.03498  -0.10045
  17   32069.2    311.8    -115.61995   0.24337   0.09411   0.08895
  18   32559.5    307.1     97.72695  -0.15610  -0.23091  -0.21612
  19   34974.0    285.9    -47.87914   0.12909  -0.14477   0.00523
  20   35332.2    283.0      8.84677  -0.08129   0.08375  -0.03996
  21   36466.9    274.2     77.95864   0.03466   0.03443   0.24813
  22   37167.3    269.1     11.07235   0.05094  -0.22607  -0.15531
  23   37511.0    266.6     37.69103   0.05550   0.14069  -0.02436
  24   37954.9    263.5     -0.16594  -0.06218  -0.02184   0.01428
  25   38628.6    258.9     -2.15750   0.00370  -0.00965   0.02202
  26   39371.5    254.0      7.91682  -0.02131   0.17647  -0.04036
  27   39072.3    255.9     10.61074   0.00295  -0.03339   0.08006
  28   39147.8    255.4     -0.05004  -0.00527   0.03200  -0.05402
  29   39246.8    254.8     -1.49386  -0.12798  -0.00151  -0.03520
  30   39234.4    254.9     -2.85999  -0.00867  -0.09782  -0.01106
  31   39384.8    253.9     17.22013   0.02372   0.06179   0.05822
  32   38387.4    260.5     26.45631   0.24471  -0.03803  -0.22193
  33   40119.1    249.3     29.31630  -0.03083   0.00412   0.20211
  34   44162.3    226.4     17.22634   0.09619   0.27161  -0.25162
  35   44473.4    224.9     49.64564   0.07961   0.19576  -0.08199
  36   45356.6    220.5    -86.56278   0.15804   0.27737   0.13681
  37   45496.6    219.8    -77.77338   0.09412   0.01868  -0.31293
  38   45556.9    219.5     18.18978  -0.13088   0.07553   0.17572
  39   45624.7    219.2     16.55019   0.09535  -0.07621   0.11693
  40   46472.3    215.2    -58.30814  -0.14574  -0.28054   0.31933

Total run time:   706896.868 sec

           *** ORCA-CIS/TD-DFT FINISHED WITHOUT ERROR ***

Maximum memory used throughout the entire CIS-calculation: 18423.0 MB

-----------------------
CIS/TD-DFT TOTAL ENERGY
-----------------------

    E(SCF)  =  -3415.526646360 Eh
    DE(CIS) =      0.104981478 Eh (Root  1)
    ----------------------------- ---------
    E(tot)  =  -3415.421664882 Eh


-------------------------   --------------------
FINAL SINGLE POINT ENERGY     -3415.421664882094
-------------------------   --------------------


                            ***************************************
                            *     ORCA property calculations      *
                            ***************************************


  WARNING: The energy has been calculated at the MP2 level but the densities
           used in the property calculations are still SCF densities
           MP2 response densities have not been calculated 
           use %mp2 Density relaxed end
           or  %mp2 Density unrelaxed end

                                    ---------------------
                                    Active property flags
                                    ---------------------
   (+) Dipole Moment


------------------------------------------------------------------------------
                       ORCA ELECTRIC PROPERTIES CALCULATION
------------------------------------------------------------------------------

Dipole Moment Calculation                       ... on
Quadrupole Moment Calculation                   ... off
Polarizability Calculation                      ... off
GBWName                                         ... W-CN_1.gbw
Electron density                                ... W-CN_1.scfp
The origin for moment calculation is the CENTER OF MASS  = (-0.002418,  0.020908 -0.013529)

-------------
DIPOLE MOMENT
-------------
                                X             Y             Z
Electronic contribution:    -10.61068      34.66410     -37.97657
Nuclear contribution   :     10.73526     -34.80410      38.60956
                        -----------------------------------------
Total Dipole Moment    :      0.12459      -0.14000       0.63299
                        -----------------------------------------
Magnitude (a.u.)       :      0.66015
Magnitude (Debye)      :      1.67797



--------------------
Rotational spectrum 
--------------------
 
Rotational constants in cm-1:     0.000781     0.000733     0.000661 
Rotational constants in MHz :    23.426014    21.959893    19.806882 

 Dipole components along the rotational axes: 
x,y,z [a.u.] :     0.122308     0.139776     0.633483 
x,y,z [Debye]:     0.310882     0.355283     1.610186 

 

Timings for individual modules:

Sum of individual times         ...   754288.633 sec (=12571.477 min)
GTO integral calculation        ...       10.888 sec (=   0.181 min)   0.0 %
SCF iterations                  ...     3833.420 sec (=  63.890 min)   0.5 %
MP2 module                      ...    43543.070 sec (= 725.718 min)   5.8 %
CIS module                      ...   706901.255 sec (=11781.688 min)  93.7 %
                             ****ORCA TERMINATED NORMALLY****
TOTAL RUN TIME: 8 days 17 hours 32 minutes 43 seconds 717 msec
