
                                 *****************
                                 * O   R   C   A *
                                 *****************

                                            #,                                       
                                            ###                                      
                                            ####                                     
                                            #####                                    
                                            ######                                   
                                           ########,                                 
                                     ,,################,,,,,                         
                               ,,#################################,,                 
                          ,,##########################################,,             
                       ,#########################################, ''#####,          
                    ,#############################################,,   '####,        
                  ,##################################################,,,,####,       
                ,###########''''           ''''###############################       
              ,#####''   ,,,,##########,,,,          '''####'''          '####       
            ,##' ,,,,###########################,,,                        '##       
           ' ,,###''''                  '''############,,,                           
         ,,##''                                '''############,,,,        ,,,,,,###''
      ,#''                                            '''#######################'''  
     '                                                          ''''####''''         
             ,#######,   #######,   ,#######,      ##                                
            ,#'     '#,  ##    ##  ,#'     '#,    #''#        ######   ,####,        
            ##       ##  ##   ,#'  ##            #'  '#       #        #'  '#        
            ##       ##  #######   ##           ,######,      #####,   #    #        
            '#,     ,#'  ##    ##  '#,     ,#' ,#      #,         ##   #,  ,#        
             '#######'   ##     ##  '#######'  #'      '#     #####' # '####'        



                  #######################################################
                  #                        -***-                        #
                  #          Department of theory and spectroscopy      #
                  #    Directorship and core code : Frank Neese         #
                  #        Max Planck Institute fuer Kohlenforschung    #
                  #                Kaiser Wilhelm Platz 1               #
                  #                 D-45470 Muelheim/Ruhr               #
                  #                      Germany                        #
                  #                                                     #
                  #                  All rights reserved                #
                  #                        -***-                        #
                  #######################################################


                         Program Version 5.0.4 -  RELEASE  -


 With contributions from (in alphabetic order):
   Daniel Aravena         : Magnetic Suceptibility
   Michael Atanasov       : Ab Initio Ligand Field Theory (pilot matlab implementation)
   Alexander A. Auer      : GIAO ZORA, VPT2 properties, NMR spectrum
   Ute Becker             : Parallelization
   Giovanni Bistoni       : ED, misc. LED, open-shell LED, HFLD
   Martin Brehm           : Molecular dynamics
   Dmytro Bykov           : SCF Hessian
   Vijay G. Chilkuri      : MRCI spin determinant printing, contributions to CSF-ICE
   Dipayan Datta          : RHF DLPNO-CCSD density
   Achintya Kumar Dutta   : EOM-CC, STEOM-CC
   Dmitry Ganyushin       : Spin-Orbit,Spin-Spin,Magnetic field MRCI
   Miquel Garcia          : C-PCM and meta-GGA Hessian, CC/C-PCM, Gaussian charge scheme
   Yang Guo               : DLPNO-NEVPT2, F12-NEVPT2, CIM, IAO-localization
   Andreas Hansen         : Spin unrestricted coupled pair/coupled cluster methods
   Benjamin Helmich-Paris : MC-RPA, TRAH-SCF, COSX integrals
   Lee Huntington         : MR-EOM, pCC
   Robert Izsak           : Overlap fitted RIJCOSX, COSX-SCS-MP3, EOM
   Marcus Kettner         : VPT2
   Christian Kollmar      : KDIIS, OOCD, Brueckner-CCSD(T), CCSD density, CASPT2, CASPT2-K
   Simone Kossmann        : Meta GGA functionals, TD-DFT gradient, OOMP2, MP2 Hessian
   Martin Krupicka        : Initial AUTO-CI
   Lucas Lang             : DCDCAS
   Marvin Lechner         : AUTO-CI (C++ implementation), FIC-MRCC
   Dagmar Lenk            : GEPOL surface, SMD
   Dimitrios Liakos       : Extrapolation schemes; Compound Job, initial MDCI parallelization
   Dimitrios Manganas     : Further ROCIS development; embedding schemes
   Dimitrios Pantazis     : SARC Basis sets
   Anastasios Papadopoulos: AUTO-CI, single reference methods and gradients
   Taras Petrenko         : DFT Hessian,TD-DFT gradient, ASA, ECA, R-Raman, ABS, FL, XAS/XES, NRVS
   Peter Pinski           : DLPNO-MP2, DLPNO-MP2 Gradient
   Christoph Reimann      : Effective Core Potentials
   Marius Retegan         : Local ZFS, SOC
   Christoph Riplinger    : Optimizer, TS searches, QM/MM, DLPNO-CCSD(T), (RO)-DLPNO pert. Triples
   Tobias Risthaus        : Range-separated hybrids, TD-DFT gradient, RPA, STAB
   Michael Roemelt        : Original ROCIS implementation
   Masaaki Saitow         : Open-shell DLPNO-CCSD energy and density
   Barbara Sandhoefer     : DKH picture change effects
   Avijit Sen             : IP-ROCIS
   Kantharuban Sivalingam : CASSCF convergence, NEVPT2, FIC-MRCI
   Bernardo de Souza      : ESD, SOC TD-DFT
   Georgi Stoychev        : AutoAux, RI-MP2 NMR, DLPNO-MP2 response
   Willem Van den Heuvel  : Paramagnetic NMR
   Boris Wezisla          : Elementary symmetry handling
   Frank Wennmohs         : Technical directorship


 We gratefully acknowledge several colleagues who have allowed us to
 interface, adapt or use parts of their codes:
   Stefan Grimme, W. Hujo, H. Kruse, P. Pracht,  : VdW corrections, initial TS optimization,
                  C. Bannwarth, S. Ehlert          DFT functionals, gCP, sTDA/sTD-DF
   Ed Valeev, F. Pavosevic, A. Kumar             : LibInt (2-el integral package), F12 methods
   Garnet Chan, S. Sharma, J. Yang, R. Olivares  : DMRG
   Ulf Ekstrom                                   : XCFun DFT Library
   Mihaly Kallay                                 : mrcc  (arbitrary order and MRCC methods)
   Jiri Pittner, Ondrej Demel                    : Mk-CCSD
   Frank Weinhold                                : gennbo (NPA and NBO analysis)
   Christopher J. Cramer and Donald G. Truhlar   : smd solvation model
   Lars Goerigk                                  : TD-DFT with DH, B97 family of functionals
   V. Asgeirsson, H. Jonsson                     : NEB implementation
   FAccTs GmbH                                   : IRC, NEB, NEB-TS, DLPNO-Multilevel, CI-OPT
                                                   MM, QMMM, 2- and 3-layer-ONIOM, Crystal-QMMM,
                                                   LR-CPCM, SF, NACMEs, symmetry and pop. for TD-DFT,
                                                   nearIR, NL-DFT gradient (VV10), updates on ESD,
                                                   ML-optimized integration grids
   S Lehtola, MJT Oliveira, MAL Marques          : LibXC Library
   Liviu Ungur et al                             : ANISO software


 Your calculation uses the libint2 library for the computation of 2-el integrals
 For citations please refer to: http://libint.valeyev.net

 Your ORCA version has been built with support for libXC version: 5.1.0
 For citations please refer to: https://tddft.org/programs/libxc/

 This ORCA versions uses:
   CBLAS   interface :  Fast vector & matrix operations
   LAPACKE interface :  Fast linear algebra routines
   SCALAPACK package :  Parallel linear algebra routines
   Shared memory     :  Shared parallel matrices
   BLAS/LAPACK       :  OpenBLAS 0.3.15  USE64BITINT DYNAMIC_ARCH NO_AFFINITY Zen SINGLE_THREADED
        Core in use  :  Zen
   Copyright (c) 2011-2014, The OpenBLAS Project


Your calculation utilizes the SMD solvation module
Please cite in your paper:
A.V. Marenich, C.J. Cramer, D.G. Truhlar J. Phys. Chem. B, 113, (2009), 6378 

================================================================================

cite the ECPs for W  [Def2-ECP] as follows:
Ce-Yb(ecp-28): M. Dolg, H. Stoll, H.Preuss, J. Chem. Phys., 1989, 90, 1730-1734.
Y-Cd(ecp-28), Hf-Hg(ecp-46): D. Andrae,U. Haeussermann, M. Dolg, H. Stoll, H. Preuss, Theor. Chim. Acta, 1990, 77, 123-141.
In-Sb(ecp-28), Tl-Bi(ecp-46): B. Metz, H. Stoll, M. Dolg, J. Chem. Phys., 2000, 113, 2563-2569.
Te-Xe(ecp-28), Po-Rn(ecp-46): K. A. Peterson, D. Figgen, E. Goll, H. Stoll, M. Dolg, J. Chem. Phys., 2003, 119, 11113-11123.
Rb(ecp-28), Cs(ecp-46): T. Leininger, A. Nicklass, W. Kuechle, H. Stoll, M. Dolg, A. Bergner, Chem. Phys. Lett., 1996, 255, 274-280.
Sr(ecp-28), Ba(ecp-46): M. Kaupp, P. V. Schleyer, H. Stoll and H. Preuss, J. Chem. Phys., 1991, 94, 1360-1366.
La(ecp-46): M. Dolg, H. Stoll, A. Savin, H. Preuss, Theor. Chim. Acta, 1989, 75, 173-194.
Lu(ecp-28): X. Cao, M. Dolg, J. Chem. Phys., 2001, 115, 7348-7355.

ECP parameters for W  [Def2-ECP] have been obtained from:
TURBOMOLE (7.0.2)

----- Orbital basis set information -----
Your calculation utilizes the basis: def2-SVP
   F. Weigend and R. Ahlrichs, Phys. Chem. Chem. Phys. 7, 3297 (2005).

----- AuxJ basis set information -----
Your calculation utilizes the auxiliary basis: def2/J
   F. Weigend, Phys. Chem. Chem. Phys. 8, 1057 (2006).

----- AuxC basis set information -----
Your calculation utilizes the auxiliary basis: def2-SVP/C
  H-La, Hf-Rn : A. Hellweg, C. Hattig, S. Hofener and W. Klopper, Theor. Chem. Acc. 117, 587 (2007).
        Ce-Lu : J. Chmela and M. E. Harding, Mol. Phys. (2018).

================================================================================
                                        WARNINGS
                       Please study these warnings very carefully!
================================================================================

INFO   : Checking CIS options ...
  ===> : (D) CORRECTION FOUND - SETTING MODE=3
  ===> : JK MODE FOUND - ACTIVATING RI-MP2 CODE
  ===> : MP2 AND CIS FOUND - CHECKING
WARNING: CIS(D) and MP2 runs must have the same orbital window
  ===> : adjusting orbital windows

WARNING: No MP2 level density has been requested!
         To caclulate MP2 level properties use
         %mp2 Density relaxed end
         or
         %mp2 Density unrelaxed end
         Otherwise for double-hybrid DFT only the energy is correct!

WARNING: The frozen-core approximation is turned on by default for 
         the MP2 part of double-hybrid DFT.

WARNING:  You are using a Range-Separated Double Hybrid functional with Doubles Correction 
          Changing Mode to RPA_AOINTS 


WARNING: CIS/ROCIS methods need fully converged wavefunctions
  ===> : Setting SCFConvForced true
         You can overwrite this default with %scf ConvForced false 


INFO   : the flag for use of the SHARK integral package has been found!

================================================================================
                                       INPUT FILE
================================================================================
NAME = W-CN_1_SOS-wPBEPP86_def2SVP.inp
|  1> %maxcore 12000
|  2> %pal
|  3>  nprocs 8
|  4> end
|  5> ! RI-SOS-wPBEPP86 def2-SVP def2/J def2-SVP/C RIJCOSX CPCM TIGHTSCF
|  6> 
|  7> %TDDFT 
|  8>     DCORR     1
|  9>     NROOTS    40
| 10>     doscs     TRUE
| 11>     TDA       FALSE
| 12> END
| 13> 
| 14> %CPCM
| 15>     SMD		TRUE
| 16>     SMDsolvent	"THF"
| 17> END
| 18> 
| 19> * xyz 0 1
| 20> W                  -0.08007800    0.19610200   -0.26748300
| 21> C                   0.37094100   -1.64118300    0.60425800
| 22> N                   0.69090800   -2.67896900    1.10222400
| 23> C                   0.73051600   -3.85940500    1.78973200
| 24> C                   1.96769500   -4.53415500    1.92578300
| 25> C                  -0.47450400   -4.35488500    2.34965500
| 26> C                   1.97557600   -5.72278200    2.65848700
| 27> C                  -0.40162500   -5.54583200    3.07496900
| 28> C                   0.80703500   -6.22298000    3.23183000
| 29> H                   2.91267100   -6.26862300    2.78943400
| 30> H                  -1.30907400   -5.95516900    3.52538600
| 31> H                   0.83816000   -7.15209800    3.80611200
| 32> C                   3.20358300   -3.97067000    1.25787700
| 33> H                   3.16622900   -2.87666100    1.40257400
| 34> C                  -1.78363400   -3.64012200    2.09122800
| 35> H                  -1.57533700   -2.55496000    2.08522600
| 36> C                   3.17281900   -4.21257600   -0.25122700
| 37> H                   3.19060800   -5.28951600   -0.48370300
| 38> H                   2.27330000   -3.78508800   -0.71955700
| 39> H                   4.04775500   -3.75412200   -0.73845200
| 40> C                   4.50393800   -4.47080200    1.86246500
| 41> H                   5.36077500   -3.93349000    1.43112500
| 42> H                   4.53793400   -4.32671700    2.95251700
| 43> H                   4.66950300   -5.54079500    1.66287500
| 44> C                  -2.30504000   -3.99792800    0.69849200
| 45> H                  -1.57667200   -3.75950200   -0.09300700
| 46> H                  -2.52727200   -5.07468900    0.63047900
| 47> H                  -3.23305300   -3.45174800    0.46941400
| 48> C                  -2.83635500   -3.88942800    3.15759100
| 49> H                  -2.46540900   -3.65145600    4.16622600
| 50> H                  -3.72106900   -3.26218800    2.97674200
| 51> H                  -3.18436500   -4.93376700    3.16700200
| 52> C                   1.44693100   -0.35727300   -1.58276000
| 53> N                   2.39016200   -0.81805300   -2.15381600
| 54> C                   3.28129100   -1.62378700   -2.80445600
| 55> C                   4.66372200   -1.34431600   -2.69610700
| 56> C                   2.78351200   -2.74474000   -3.51424900
| 57> C                   5.54682700   -2.18702100   -3.37422000
| 58> C                   5.12395000   -0.22863300   -1.78335200
| 59> C                   3.71403500   -3.55647400   -4.16553600
| 60> C                   1.29650500   -3.02423900   -3.52205100
| 61> C                   5.07908200   -3.27526700   -4.11055900
| 62> H                   6.62147800   -1.99768400   -3.32032400
| 63> H                   4.42601400    0.61730600   -1.92823100
| 64> C                   6.52906500    0.26753800   -2.07418800
| 65> C                   4.99788000   -0.67115600   -0.32388400
| 66> H                   3.36769100   -4.43051000   -4.72235900
| 67> H                   0.92949500   -2.80219500   -2.50110300
| 68> C                   0.56098100   -2.08198300   -4.47357000
| 69> C                   0.95669100   -4.47602600   -3.81254000
| 70> H                   5.78783800   -3.92102500   -4.63472300
| 71> H                   7.28878300   -0.50178900   -1.86742900
| 72> H                   6.65169100    0.58423300   -3.12043100
| 73> H                   6.77230000    1.12800500   -1.43406400
| 74> H                   5.30083600    0.13539400    0.36145400
| 75> H                   3.96695900   -0.95893700   -0.06516900
| 76> H                   5.64924100   -1.53659700   -0.11994000
| 77> H                   0.79238300   -1.02517600   -4.27864200
| 78> H                   0.82940200   -2.29313000   -5.52086400
| 79> H                  -0.52836000   -2.19658400   -4.37818600
| 80> H                   1.52230000   -5.16888100   -3.17200000
| 81> H                  -0.11139300   -4.66155800   -3.63088000
| 82> H                   1.15719400   -4.75034200   -4.86005200
| 83> C                   1.46695600    1.06693200    0.84260600
| 84> N                   2.43368000    1.52912500    1.37162800
| 85> C                   3.67195800    2.03679200    1.66276500
| 86> C                   4.32155800    1.61266200    2.84613900
| 87> C                   4.27614000    2.93273300    0.74506200
| 88> C                   5.60703600    2.09973600    3.09070300
| 89> C                   3.63804600    0.61664500    3.75621900
| 90> C                   5.56587800    3.38049900    1.03965500
| 91> C                   3.51357600    3.40653400   -0.47306600
| 92> C                   6.22777700    2.97024200    2.19626100
| 93> H                   6.13642800    1.78987700    3.99473800
| 94> H                   2.57097600    0.90556700    3.78819200
| 95> C                   4.16179900    0.62305500    5.18133700
| 96> C                   3.70444600   -0.78798200    3.15628600
| 97> H                   6.06552800    4.06570500    0.35075700
| 98> H                   2.93810600    2.54307000   -0.85702000
| 99> C                   2.50817100    4.48546400   -0.07150400
|100> C                   4.40160300    3.90282500   -1.60199800
|101> H                   7.23642000    3.33562400    2.40386900
|102> H                   5.19159900    0.23932900    5.24589400
|103> H                   4.15247800    1.62964500    5.62481700
|104> H                   3.54235300   -0.02576800    5.81780100
|105> H                   3.21351200   -1.52525300    3.81113100
|106> H                   3.20711800   -0.83616900    2.17697200
|107> H                   4.74922000   -1.11222900    3.02028400
|108> H                   1.77409100    4.12155500    0.66303000
|109> H                   3.02294700    5.35145000    0.37370700
|110> H                   1.95290600    4.85041300   -0.94790000
|111> H                   5.17310300    3.17108600   -1.88298300
|112> H                   3.79732800    4.10594200   -2.49837400
|113> H                   4.91272200    4.84357000   -1.34533100
|114> C                  -0.42615900    2.15151400   -0.95973100
|115> N                  -0.55926700    3.31070000   -1.21525000
|116> C                  -0.79374400    4.65796000   -1.19707500
|117> C                  -1.37582100    5.23151200   -0.03845800
|118> C                  -0.39113300    5.43603700   -2.30855300
|119> C                  -1.59494900    6.61093100   -0.04798600
|120> C                  -1.74786700    4.35976700    1.14243500
|121> C                  -0.63708800    6.80925800   -2.26015400
|122> C                   0.29159100    4.76715900   -3.48196900
|123> C                  -1.24173100    7.39202900   -1.14742500
|124> H                  -2.04314400    7.08828500    0.82669200
|125> H                  -0.96531100    3.58313600    1.23303800
|126> C                  -3.06979000    3.63806600    0.88500000
|127> C                  -1.79351300    5.11043700    2.46264700
|128> H                  -0.33960800    7.43934500   -3.10159000
|129> H                   0.92690600    3.96688700   -3.05803200
|130> C                  -0.72671000    4.09249200   -4.39762400
|131> C                   1.19552200    5.70261300   -4.26742600
|132> H                  -1.42435900    8.46919600   -1.12942800
|133> H                  -3.88039800    4.36047600    0.69823800
|134> H                  -3.01147500    2.96294500    0.01790700
|135> H                  -3.36050000    3.03259700    1.75641100
|136> H                  -1.92640000    4.40366700    3.29522300
|137> H                  -0.86856600    5.67480400    2.65218200
|138> H                  -2.63440200    5.81914400    2.51132400
|139> H                  -1.34557300    3.36223400   -3.85818300
|140> H                  -1.40373700    4.83454200   -4.84917700
|141> H                  -0.22542900    3.55744300   -5.21762100
|142> H                   1.91245300    6.22939900   -3.61983800
|143> H                   1.77420100    5.13975500   -5.01381700
|144> H                   0.62446400    6.46518900   -4.81895000
|145> C                  -1.48301600    0.44360800    1.25865100
|146> N                  -2.26747800    0.48416900    2.16022100
|147> C                  -2.93114500    0.40341600    3.35322200
|148> C                  -2.17585600    0.44301900    4.55337500
|149> C                  -4.34288100    0.28506300    3.34910400
|150> C                  -2.87201500    0.32281900    5.75761900
|151> C                  -0.66850300    0.56586900    4.49529500
|152> C                  -4.98132200    0.16531600    4.58578700
|153> C                  -5.10049200    0.28044500    2.03660800
|154> C                  -4.25783800    0.17663000    5.77722300
|155> H                  -2.32039100    0.34579200    6.70044200
|156> H                  -0.43254400    1.25940800    3.66589300
|157> C                  -0.04115700   -0.78270700    4.14606500
|158> C                  -0.05285900    1.13809500    5.76079900
|159> H                  -6.06817200    0.06802000    4.62334200
|160> H                  -4.64959400    1.07580400    1.41206700
|161> C                  -4.91307400   -1.03254900    1.27737900
|162> C                  -6.57762100    0.59510900    2.20076500
|163> H                  -4.78143000    0.08190400    6.73157400
|164> H                  -0.20926600   -1.51633100    4.95122700
|165> H                  -0.45903600   -1.20312600    3.22172100
|166> H                   1.04489500   -0.69191500    3.99617000
|167> H                   1.02226100    1.31781200    5.61579900
|168> H                  -0.51128000    2.09493400    6.05091200
|169> H                  -0.14631900    0.45046900    6.61519000
|170> H                  -3.85339600   -1.26143900    1.09132700
|171> H                  -5.35015400   -1.87692500    1.83380700
|172> H                  -5.41744100   -0.99168900    0.29877900
|173> H                  -6.74653300    1.54156000    2.73507700
|174> H                  -7.06833200    0.67607400    1.22096100
|175> H                  -7.10719400   -0.19751100    2.75108800
|176> C                  -1.59885200   -0.65256200   -1.44597600
|177> N                  -2.50496800   -1.13490900   -2.06360400
|178> C                  -3.74589000   -1.34943100   -2.60845100
|179> C                  -4.02592600   -2.56531300   -3.27307600
|180> C                  -4.73022700   -0.33143900   -2.46700800
|181> C                  -5.31637200   -2.75464300   -3.77772000
|182> C                  -2.97822600   -3.63892300   -3.46663600
|183> C                  -5.99892800   -0.57970300   -2.99115300
|184> C                  -4.38270500    0.98286200   -1.80133200
|185> C                  -6.29710100   -1.77955400   -3.63816800
|186> H                  -5.55155400   -3.69086500   -4.29225000
|187> H                  -2.04537000   -3.28324100   -2.99594900
|188> C                  -2.70768400   -3.86204300   -4.95186600
|189> C                  -3.37497000   -4.94425300   -2.78680200
|190> H                  -6.77646700    0.18104900   -2.89453500
|191> H                  -3.77008300    0.74621700   -0.90837500
|192> C                  -3.52620900    1.84589300   -2.72824600
|193> C                  -5.59946900    1.76185800   -1.33212100
|194> H                  -7.29995700   -1.94883600   -4.03749700
|195> H                  -3.59676500   -4.26450300   -5.46195400
|196> H                  -2.43109300   -2.93045200   -5.46678000
|197> H                  -1.89256800   -4.58462300   -5.10732300
|198> H                  -2.56494300   -5.68624100   -2.85401000
|199> H                  -3.60803400   -4.80073400   -1.72281500
|200> H                  -4.26304400   -5.39070900   -3.26088700
|201> H                  -2.59479300    1.34614900   -3.03110700
|202> H                  -4.08115700    2.10037400   -3.64519300
|203> H                  -3.25146500    2.79258000   -2.23822000
|204> H                  -6.27278200    1.15005600   -0.71458300
|205> H                  -5.29451800    2.63105900   -0.73205500
|206> H                  -6.18924100    2.15144200   -2.17627700
|207> *
|208> 
|209>                          ****END OF INPUT****
================================================================================

                       ****************************
                       * Single Point Calculation *
                       ****************************

---------------------------------
CARTESIAN COORDINATES (ANGSTROEM)
---------------------------------
  W     -0.080078    0.196102   -0.267483
  C      0.370941   -1.641183    0.604258
  N      0.690908   -2.678969    1.102224
  C      0.730516   -3.859405    1.789732
  C      1.967695   -4.534155    1.925783
  C     -0.474504   -4.354885    2.349655
  C      1.975576   -5.722782    2.658487
  C     -0.401625   -5.545832    3.074969
  C      0.807035   -6.222980    3.231830
  H      2.912671   -6.268623    2.789434
  H     -1.309074   -5.955169    3.525386
  H      0.838160   -7.152098    3.806112
  C      3.203583   -3.970670    1.257877
  H      3.166229   -2.876661    1.402574
  C     -1.783634   -3.640122    2.091228
  H     -1.575337   -2.554960    2.085226
  C      3.172819   -4.212576   -0.251227
  H      3.190608   -5.289516   -0.483703
  H      2.273300   -3.785088   -0.719557
  H      4.047755   -3.754122   -0.738452
  C      4.503938   -4.470802    1.862465
  H      5.360775   -3.933490    1.431125
  H      4.537934   -4.326717    2.952517
  H      4.669503   -5.540795    1.662875
  C     -2.305040   -3.997928    0.698492
  H     -1.576672   -3.759502   -0.093007
  H     -2.527272   -5.074689    0.630479
  H     -3.233053   -3.451748    0.469414
  C     -2.836355   -3.889428    3.157591
  H     -2.465409   -3.651456    4.166226
  H     -3.721069   -3.262188    2.976742
  H     -3.184365   -4.933767    3.167002
  C      1.446931   -0.357273   -1.582760
  N      2.390162   -0.818053   -2.153816
  C      3.281291   -1.623787   -2.804456
  C      4.663722   -1.344316   -2.696107
  C      2.783512   -2.744740   -3.514249
  C      5.546827   -2.187021   -3.374220
  C      5.123950   -0.228633   -1.783352
  C      3.714035   -3.556474   -4.165536
  C      1.296505   -3.024239   -3.522051
  C      5.079082   -3.275267   -4.110559
  H      6.621478   -1.997684   -3.320324
  H      4.426014    0.617306   -1.928231
  C      6.529065    0.267538   -2.074188
  C      4.997880   -0.671156   -0.323884
  H      3.367691   -4.430510   -4.722359
  H      0.929495   -2.802195   -2.501103
  C      0.560981   -2.081983   -4.473570
  C      0.956691   -4.476026   -3.812540
  H      5.787838   -3.921025   -4.634723
  H      7.288783   -0.501789   -1.867429
  H      6.651691    0.584233   -3.120431
  H      6.772300    1.128005   -1.434064
  H      5.300836    0.135394    0.361454
  H      3.966959   -0.958937   -0.065169
  H      5.649241   -1.536597   -0.119940
  H      0.792383   -1.025176   -4.278642
  H      0.829402   -2.293130   -5.520864
  H     -0.528360   -2.196584   -4.378186
  H      1.522300   -5.168881   -3.172000
  H     -0.111393   -4.661558   -3.630880
  H      1.157194   -4.750342   -4.860052
  C      1.466956    1.066932    0.842606
  N      2.433680    1.529125    1.371628
  C      3.671958    2.036792    1.662765
  C      4.321558    1.612662    2.846139
  C      4.276140    2.932733    0.745062
  C      5.607036    2.099736    3.090703
  C      3.638046    0.616645    3.756219
  C      5.565878    3.380499    1.039655
  C      3.513576    3.406534   -0.473066
  C      6.227777    2.970242    2.196261
  H      6.136428    1.789877    3.994738
  H      2.570976    0.905567    3.788192
  C      4.161799    0.623055    5.181337
  C      3.704446   -0.787982    3.156286
  H      6.065528    4.065705    0.350757
  H      2.938106    2.543070   -0.857020
  C      2.508171    4.485464   -0.071504
  C      4.401603    3.902825   -1.601998
  H      7.236420    3.335624    2.403869
  H      5.191599    0.239329    5.245894
  H      4.152478    1.629645    5.624817
  H      3.542353   -0.025768    5.817801
  H      3.213512   -1.525253    3.811131
  H      3.207118   -0.836169    2.176972
  H      4.749220   -1.112229    3.020284
  H      1.774091    4.121555    0.663030
  H      3.022947    5.351450    0.373707
  H      1.952906    4.850413   -0.947900
  H      5.173103    3.171086   -1.882983
  H      3.797328    4.105942   -2.498374
  H      4.912722    4.843570   -1.345331
  C     -0.426159    2.151514   -0.959731
  N     -0.559267    3.310700   -1.215250
  C     -0.793744    4.657960   -1.197075
  C     -1.375821    5.231512   -0.038458
  C     -0.391133    5.436037   -2.308553
  C     -1.594949    6.610931   -0.047986
  C     -1.747867    4.359767    1.142435
  C     -0.637088    6.809258   -2.260154
  C      0.291591    4.767159   -3.481969
  C     -1.241731    7.392029   -1.147425
  H     -2.043144    7.088285    0.826692
  H     -0.965311    3.583136    1.233038
  C     -3.069790    3.638066    0.885000
  C     -1.793513    5.110437    2.462647
  H     -0.339608    7.439345   -3.101590
  H      0.926906    3.966887   -3.058032
  C     -0.726710    4.092492   -4.397624
  C      1.195522    5.702613   -4.267426
  H     -1.424359    8.469196   -1.129428
  H     -3.880398    4.360476    0.698238
  H     -3.011475    2.962945    0.017907
  H     -3.360500    3.032597    1.756411
  H     -1.926400    4.403667    3.295223
  H     -0.868566    5.674804    2.652182
  H     -2.634402    5.819144    2.511324
  H     -1.345573    3.362234   -3.858183
  H     -1.403737    4.834542   -4.849177
  H     -0.225429    3.557443   -5.217621
  H      1.912453    6.229399   -3.619838
  H      1.774201    5.139755   -5.013817
  H      0.624464    6.465189   -4.818950
  C     -1.483016    0.443608    1.258651
  N     -2.267478    0.484169    2.160221
  C     -2.931145    0.403416    3.353222
  C     -2.175856    0.443019    4.553375
  C     -4.342881    0.285063    3.349104
  C     -2.872015    0.322819    5.757619
  C     -0.668503    0.565869    4.495295
  C     -4.981322    0.165316    4.585787
  C     -5.100492    0.280445    2.036608
  C     -4.257838    0.176630    5.777223
  H     -2.320391    0.345792    6.700442
  H     -0.432544    1.259408    3.665893
  C     -0.041157   -0.782707    4.146065
  C     -0.052859    1.138095    5.760799
  H     -6.068172    0.068020    4.623342
  H     -4.649594    1.075804    1.412067
  C     -4.913074   -1.032549    1.277379
  C     -6.577621    0.595109    2.200765
  H     -4.781430    0.081904    6.731574
  H     -0.209266   -1.516331    4.951227
  H     -0.459036   -1.203126    3.221721
  H      1.044895   -0.691915    3.996170
  H      1.022261    1.317812    5.615799
  H     -0.511280    2.094934    6.050912
  H     -0.146319    0.450469    6.615190
  H     -3.853396   -1.261439    1.091327
  H     -5.350154   -1.876925    1.833807
  H     -5.417441   -0.991689    0.298779
  H     -6.746533    1.541560    2.735077
  H     -7.068332    0.676074    1.220961
  H     -7.107194   -0.197511    2.751088
  C     -1.598852   -0.652562   -1.445976
  N     -2.504968   -1.134909   -2.063604
  C     -3.745890   -1.349431   -2.608451
  C     -4.025926   -2.565313   -3.273076
  C     -4.730227   -0.331439   -2.467008
  C     -5.316372   -2.754643   -3.777720
  C     -2.978226   -3.638923   -3.466636
  C     -5.998928   -0.579703   -2.991153
  C     -4.382705    0.982862   -1.801332
  C     -6.297101   -1.779554   -3.638168
  H     -5.551554   -3.690865   -4.292250
  H     -2.045370   -3.283241   -2.995949
  C     -2.707684   -3.862043   -4.951866
  C     -3.374970   -4.944253   -2.786802
  H     -6.776467    0.181049   -2.894535
  H     -3.770083    0.746217   -0.908375
  C     -3.526209    1.845893   -2.728246
  C     -5.599469    1.761858   -1.332121
  H     -7.299957   -1.948836   -4.037497
  H     -3.596765   -4.264503   -5.461954
  H     -2.431093   -2.930452   -5.466780
  H     -1.892568   -4.584623   -5.107323
  H     -2.564943   -5.686241   -2.854010
  H     -3.608034   -4.800734   -1.722815
  H     -4.263044   -5.390709   -3.260887
  H     -2.594793    1.346149   -3.031107
  H     -4.081157    2.100374   -3.645193
  H     -3.251465    2.792580   -2.238220
  H     -6.272782    1.150056   -0.714583
  H     -5.294518    2.631059   -0.732055
  H     -6.189241    2.151442   -2.176277

----------------------------
CARTESIAN COORDINATES (A.U.)
----------------------------
  NO LB      ZA    FRAG     MASS         X           Y           Z
   0 W    14.0000*   0   183.850   -0.151325    0.370579   -0.505470
   1 C     6.0000    0    12.011    0.700977   -3.101386    1.141882
   2 N     7.0000    0    14.007    1.305627   -5.062518    2.082901
   3 C     6.0000    0    12.011    1.380475   -7.293218    3.382103
   4 C     6.0000    0    12.011    3.718405   -8.568311    3.639202
   5 C     6.0000    0    12.011   -0.896683   -8.229540    4.440204
   6 C     6.0000    0    12.011    3.733298  -10.814491    5.023812
   7 C     6.0000    0    12.011   -0.758961  -10.480104    5.810849
   8 C     6.0000    0    12.011    1.525075  -11.759728    6.107274
   9 H     1.0000    0     1.008    5.504151  -11.845981    5.271266
  10 H     1.0000    0     1.008   -2.473791  -11.253638    6.662014
  11 H     1.0000    0     1.008    1.583893  -13.515507    7.192509
  12 C     6.0000    0    12.011    6.053895   -7.503479    2.377043
  13 H     1.0000    0     1.008    5.983306   -5.436101    2.650481
  14 C     6.0000    0    12.011   -3.370580   -6.878834    3.951848
  15 H     1.0000    0     1.008   -2.976955   -4.828175    3.940506
  16 C     6.0000    0    12.011    5.995759   -7.960615   -0.474750
  17 H     1.0000    0     1.008    6.029375   -9.995737   -0.914066
  18 H     1.0000    0     1.008    4.295914   -7.152780   -1.359766
  19 H     1.0000    0     1.008    7.649148   -7.094262   -1.395472
  20 C     6.0000    0    12.011    8.511209   -8.448591    3.519549
  21 H     1.0000    0     1.008   10.130397   -7.433219    2.704434
  22 H     1.0000    0     1.008    8.575452   -8.176310    5.579449
  23 H     1.0000    0     1.008    8.824082  -10.470585    3.142378
  24 C     6.0000    0    12.011   -4.355894   -7.554989    1.319959
  25 H     1.0000    0     1.008   -2.979478   -7.104429   -0.175758
  26 H     1.0000    0     1.008   -4.775852   -9.589772    1.191433
  27 H     1.0000    0     1.008   -6.109585   -6.522858    0.887064
  28 C     6.0000    0    12.011   -5.359934   -7.349954    5.966982
  29 H     1.0000    0     1.008   -4.658948   -6.900252    7.873026
  30 H     1.0000    0     1.008   -7.031801   -6.164642    5.625227
  31 H     1.0000    0     1.008   -6.017578   -9.323468    5.984766
  32 C     6.0000    0    12.011    2.734303   -0.675148   -2.990983
  33 N     7.0000    0    14.007    4.516752   -1.545896   -4.070122
  34 C     6.0000    0    12.011    6.200741   -3.068513   -5.299654
  35 C     6.0000    0    12.011    8.813157   -2.540389   -5.094904
  36 C     6.0000    0    12.011    5.260075   -5.186807   -6.640968
  37 C     6.0000    0    12.011   10.481984   -4.132871   -6.376352
  38 C     6.0000    0    12.011    9.682862   -0.432054   -3.370047
  39 C     6.0000    0    12.011    7.018509   -6.720762   -7.871722
  40 C     6.0000    0    12.011    2.450039   -5.714983   -6.655712
  41 C     6.0000    0    12.011    9.598074   -6.189358   -7.767831
  42 H     1.0000    0     1.008   12.512780   -3.775076   -6.274503
  43 H     1.0000    0     1.008    8.363954    1.166539   -3.643829
  44 C     6.0000    0    12.011   12.338145    0.505574   -3.919647
  45 C     6.0000    0    12.011    9.444624   -1.268301   -0.612052
  46 H     1.0000    0     1.008    6.364014   -8.372451   -8.923965
  47 H     1.0000    0     1.008    1.756491   -5.295381   -4.726400
  48 C     6.0000    0    12.011    1.060100   -3.934378   -8.453822
  49 C     6.0000    0    12.011    1.807884   -8.458463   -7.204656
  50 H     1.0000    0     1.008   10.937429   -7.409663   -8.758357
  51 H     1.0000    0     1.008   13.773804   -0.948244   -3.528929
  52 H     1.0000    0     1.008   12.569874    1.104040   -5.896760
  53 H     1.0000    0     1.008   12.797792    2.131621   -2.709988
  54 H     1.0000    0     1.008   10.017128    0.255858    0.683049
  55 H     1.0000    0     1.008    7.496466   -1.812128   -0.123152
  56 H     1.0000    0     1.008   10.675518   -2.903748   -0.226654
  57 H     1.0000    0     1.008    1.497387   -1.937302   -8.085462
  58 H     1.0000    0     1.008    1.567343   -4.333388  -10.432921
  59 H     1.0000    0     1.008   -0.998456   -4.150942   -8.273573
  60 H     1.0000    0     1.008    2.876730   -9.767770   -5.994211
  61 H     1.0000    0     1.008   -0.210502   -8.809068   -6.861369
  62 H     1.0000    0     1.008    2.186780   -8.976845   -9.184167
  63 C     6.0000    0    12.011    2.772145    2.016209    1.592295
  64 N     7.0000    0    14.007    4.598989    2.889627    2.592001
  65 C     6.0000    0    12.011    6.938995    3.848979    3.142170
  66 C     6.0000    0    12.011    8.166561    3.047490    5.378423
  67 C     6.0000    0    12.011    8.080734    5.542062    1.407963
  68 C     6.0000    0    12.011   10.595762    3.967926    5.840582
  69 C     6.0000    0    12.011    6.874911    1.165290    7.098225
  70 C     6.0000    0    12.011   10.517985    6.388217    1.964663
  71 C     6.0000    0    12.011    6.639696    6.437416   -0.893965
  72 C     6.0000    0    12.011   11.768793    5.612944    4.150332
  73 H     1.0000    0     1.008   11.596168    3.382377    7.548961
  74 H     1.0000    0     1.008    4.858441    1.711274    7.158645
  75 C     6.0000    0    12.011    7.864660    1.177403    9.791308
  76 C     6.0000    0    12.011    7.000388   -1.489070    5.964516
  77 H     1.0000    0     1.008   11.462187    7.683069    0.662835
  78 H     1.0000    0     1.008    5.552216    4.805706   -1.619533
  79 C     6.0000    0    12.011    4.739756    8.476299   -0.135123
  80 C     6.0000    0    12.011    8.317824    7.375270   -3.027337
  81 H     1.0000    0     1.008   13.674852    6.303416    4.542654
  82 H     1.0000    0     1.008    9.810700    0.452266    9.913303
  83 H     1.0000    0     1.008    7.847046    3.079583   10.629364
  84 H     1.0000    0     1.008    6.694077   -0.048694   10.994051
  85 H     1.0000    0     1.008    6.072658   -2.882310    7.201994
  86 H     1.0000    0     1.008    6.060575   -1.580130    4.113881
  87 H     1.0000    0     1.008    8.974725   -2.101808    5.707510
  88 H     1.0000    0     1.008    3.352546    7.788610    1.252945
  89 H     1.0000    0     1.008    5.712542   10.112775    0.706204
  90 H     1.0000    0     1.008    3.690458    9.165952   -1.791271
  91 H     1.0000    0     1.008    9.775748    5.992484   -3.558322
  92 H     1.0000    0     1.008    7.175910    7.759106   -4.721243
  93 H     1.0000    0     1.008    9.283699    9.153021   -2.542307
  94 C     6.0000    0    12.011   -0.805324    4.065772   -1.813629
  95 N     7.0000    0    14.007   -1.056861    6.256316   -2.296490
  96 C     6.0000    0    12.011   -1.499959    8.802269   -2.262144
  97 C     6.0000    0    12.011   -2.599925    9.886125   -0.072675
  98 C     6.0000    0    12.011   -0.739134   10.272621   -4.362533
  99 C     6.0000    0    12.011   -3.014017   12.492849   -0.090680
 100 C     6.0000    0    12.011   -3.302990    8.238766    2.158889
 101 C     6.0000    0    12.011   -1.203922   12.867633   -4.271072
 102 C     6.0000    0    12.011    0.551027    9.008625   -6.579968
 103 C     6.0000    0    12.011   -2.346532   13.968910   -2.168319
 104 H     1.0000    0     1.008   -3.860983   13.394917    1.562221
 105 H     1.0000    0     1.008   -1.824173    6.771146    2.330104
 106 C     6.0000    0    12.011   -5.801062    6.874948    1.672408
 107 C     6.0000    0    12.011   -3.389248    9.657326    4.653728
 108 H     1.0000    0     1.008   -0.641766   14.058325   -5.861156
 109 H     1.0000    0     1.008    1.751598    7.496330   -5.778843
 110 C     6.0000    0    12.011   -1.373283    7.733689   -8.310305
 111 C     6.0000    0    12.011    2.259209   10.776377   -8.064266
 112 H     1.0000    0     1.008   -2.691648   16.004461   -2.134310
 113 H     1.0000    0     1.008   -7.332890    8.240105    1.319479
 114 H     1.0000    0     1.008   -5.690863    5.599155    0.033839
 115 H     1.0000    0     1.008   -6.350425    5.730778    3.319136
 116 H     1.0000    0     1.008   -3.640368    8.321725    6.227069
 117 H     1.0000    0     1.008   -1.641352   10.723825    5.011898
 118 H     1.0000    0     1.008   -4.978298   10.996588    4.745715
 119 H     1.0000    0     1.008   -2.542764    6.353701   -7.290909
 120 H     1.0000    0     1.008   -2.652678    9.135960   -9.163617
 121 H     1.0000    0     1.008   -0.425999    6.722593   -9.859875
 122 H     1.0000    0     1.008    3.614012   11.771858   -6.840502
 123 H     1.0000    0     1.008    3.352754    9.712729   -9.474741
 124 H     1.0000    0     1.008    1.180066   12.217437   -9.106496
 125 C     6.0000    0    12.011   -2.802494    0.838298    2.378506
 126 N     7.0000    0    14.007   -4.284912    0.914947    4.082226
 127 C     6.0000    0    12.011   -5.539061    0.762346    6.336671
 128 C     6.0000    0    12.011   -4.111772    0.837185    8.604632
 129 C     6.0000    0    12.011   -8.206856    0.538691    6.328889
 130 C     6.0000    0    12.011   -5.427322    0.610040   10.880323
 131 C     6.0000    0    12.011   -1.263288    1.069337    8.494876
 132 C     6.0000    0    12.011   -9.413334    0.312402    8.665882
 133 C     6.0000    0    12.011   -9.638533    0.529964    3.848631
 134 C     6.0000    0    12.011   -8.046148    0.333782   10.917369
 135 H     1.0000    0     1.008   -4.384904    0.653452   12.662000
 136 H     1.0000    0     1.008   -0.817390    2.379936    6.927534
 137 C     6.0000    0    12.011   -0.077775   -1.479102    7.834927
 138 C     6.0000    0    12.011   -0.099889    2.150688   10.886332
 139 H     1.0000    0     1.008  -11.467183    0.128539    8.736850
 140 H     1.0000    0     1.008   -8.786459    2.032975    2.668420
 141 C     6.0000    0    12.011   -9.284364   -1.951235    2.413896
 142 C     6.0000    0    12.011  -12.429902    1.124593    4.158843
 143 H     1.0000    0     1.008   -9.035593    0.154776   12.720831
 144 H     1.0000    0     1.008   -0.395455   -2.865450    9.356463
 145 H     1.0000    0     1.008   -0.867452   -2.273579    6.088170
 146 H     1.0000    0     1.008    1.974565   -1.307530    7.551667
 147 H     1.0000    0     1.008    1.931793    2.490304   10.612322
 148 H     1.0000    0     1.008   -0.966179    3.958852   11.434567
 149 H     1.0000    0     1.008   -0.276503    0.851263   12.500897
 150 H     1.0000    0     1.008   -7.281863   -2.383774    2.062309
 151 H     1.0000    0     1.008  -10.110326   -3.546874    3.465393
 152 H     1.0000    0     1.008  -10.237480   -1.874021    0.564610
 153 H     1.0000    0     1.008  -12.749100    2.913126    5.168546
 154 H     1.0000    0     1.008  -13.357212    1.277595    2.307282
 155 H     1.0000    0     1.008  -13.430650   -0.373242    5.198803
 156 C     6.0000    0    12.011   -3.021392   -1.233163   -2.732499
 157 N     7.0000    0    14.007   -4.733703   -2.144667   -3.899646
 158 C     6.0000    0    12.011   -7.078706   -2.550055   -4.929258
 159 C     6.0000    0    12.011   -7.607898   -4.847739   -6.185217
 160 C     6.0000    0    12.011   -8.938834   -0.626329   -4.661969
 161 C     6.0000    0    12.011  -10.046487   -5.205521   -7.138856
 162 C     6.0000    0    12.011   -5.628032   -6.876568   -6.550993
 163 C     6.0000    0    12.011  -11.336331   -1.095480   -5.652460
 164 C     6.0000    0    12.011   -8.282112    1.857340   -3.404024
 165 C     6.0000    0    12.011  -11.899796   -3.362870   -6.875141
 166 H     1.0000    0     1.008  -10.490917   -6.974724   -8.111177
 167 H     1.0000    0     1.008   -3.865189   -6.204426   -5.661523
 168 C     6.0000    0    12.011   -5.116781   -7.298204   -9.357671
 169 C     6.0000    0    12.011   -6.377769   -9.343284   -5.266293
 170 H     1.0000    0     1.008  -12.805667    0.342133   -5.469878
 171 H     1.0000    0     1.008   -7.124424    1.410146   -1.716580
 172 C     6.0000    0    12.011   -6.663569    3.488232   -5.155638
 173 C     6.0000    0    12.011  -10.581463    3.329429   -2.517344
 174 H     1.0000    0     1.008  -13.794920   -3.682766   -7.629764
 175 H     1.0000    0     1.008   -6.796901   -8.058743  -10.321597
 176 H     1.0000    0     1.008   -4.594100   -5.537752  -10.330717
 177 H     1.0000    0     1.008   -3.576435   -8.663682   -9.651442
 178 H     1.0000    0     1.008   -4.847040  -10.745438   -5.393297
 179 H     1.0000    0     1.008   -6.818196   -9.072073   -3.255649
 180 H     1.0000    0     1.008   -8.055986  -10.186964   -6.162183
 181 H     1.0000    0     1.008   -4.903448    2.543853   -5.727962
 182 H     1.0000    0     1.008   -7.712269    3.969132   -6.888416
 183 H     1.0000    0     1.008   -6.144378    5.277211   -4.229623
 184 H     1.0000    0     1.008  -11.853840    2.173291   -1.350366
 185 H     1.0000    0     1.008  -10.005189    4.971981   -1.383383
 186 H     1.0000    0     1.008  -11.695970    4.065636   -4.112568
* core charge reduced due to ECP

--------------------------------
INTERNAL COORDINATES (ANGSTROEM)
--------------------------------
 W      0   0   0     0.000000000000     0.00000000     0.00000000
 C      1   0   0     2.083018646260     0.00000000     0.00000000
 N      2   1   0     1.194717037646   176.96063271     0.00000000
 C      3   2   1     1.366625476795   165.40839778   156.89903430
 C      4   3   2     1.415771632412   119.03432184   187.46448990
 C      4   3   2     1.418128131280   118.41082330     6.96202971
 C      5   4   3     1.396334990934   117.45539159   178.68096113
 C      6   4   3     1.396333235315   117.30590482   181.52359434
 C      8   6   4     1.394271775094   121.19231308   359.53370309
 H      7   5   4     1.092353675837   119.54500072   180.32328035
 H      8   6   4     1.092655453956   119.36040019   179.68579184
 H      9   8   6     1.092716266500   119.78660801   179.85907719
 C      5   4   3     1.513615842480   119.58305483   357.25918684
 H     13   5   4     1.104168571916   106.46343131    41.03415003
 C      6   4   3     1.513767491195   120.16408352     4.73052702
 H     15   6   4     1.104988792005   107.55414950   322.84520850
 C     13   5   4     1.528679109345   111.11687864   285.36069896
 H     17  13   5     1.101889877754   111.26086737   296.52231157
 H     17  13   5     1.100551411977   112.02884386    57.06800522
 H     17  13   5     1.101399688958   110.78416663   177.00001819
 C     13   5   4     1.518743491572   113.63123567   159.34528394
 H     21  13   5     1.099512630902   110.49556347   187.41141010
 H     21  13   5     1.100058897489   112.19690165   307.35643993
 H     21  13   5     1.100969099191   112.12517292    68.57624973
 C     15   6   4     1.529576057660   109.86420965    78.73400062
 H     25  15   6     1.101742968165   112.21932732   303.09452845
 H     25  15   6     1.101556662689   110.71068197    63.19603172
 H     25  15   6     1.100907557724   111.14682644   182.69905933
 C     15   6   4     1.519047409809   113.70283632   204.32218815
 H     29  15   6     1.100716208169   111.97720994    54.23742631
 H     29  15   6     1.099479531504   110.39853610   173.81308092
 H     29  15   6     1.100837623786   112.38212813   292.87207664
 C      1   2   3     2.089960277956    82.62475560    48.00622120
 N     33   1   2     1.195034678533   168.38181912   338.07024075
 C     34  33   1     1.366254216095   165.87523308    69.15030533
 C     35  34  33     1.414552584884   118.97584049   207.83028104
 C     35  34  33     1.417083506325   118.41918061    25.05453308
 C     36  35  34     1.396375092452   117.49281086   180.03770466
 C     36  35  34     1.513168879702   119.28246001     4.53089778
 C     37  35  34     1.396051537965   117.35357735   180.29944124
 C     37  35  34     1.513066548521   119.59884987   359.43003512
 C     38  36  35     1.394725730910   121.00877821   358.93830139
 H     38  36  35     1.092532860003   119.57306038   179.51882880
 H     39  36  35     1.106217599055   107.03407035   317.90506572
 C     39  36  35     1.518261967963   114.00953953   198.55465056
 C     39  36  35     1.530283337638   109.69554037    73.77593996
 H     40  37  35     1.092677879780   119.44371152   179.94719192
 H     41  37  35     1.107399971438   106.49402210   320.59549038
 C     41  37  35     1.527818815002   111.24863127    76.74563154
 C     41  37  35     1.519059876070   113.41426444   203.07170273
 H     42  38  36     1.092742586795   119.78971981   179.91391265
 H     45  39  36     1.100810954040   111.98348025   293.99041829
 H     45  39  36     1.099980578897   112.30035537    55.23228939
 H     45  39  36     1.099693347570   110.42039664   175.42966188
 H     46  39  36     1.100905724701   111.05015810   181.58788481
 H     46  39  36     1.101158237233   112.13430434   302.04284859
 H     46  39  36     1.102203443988   110.78390798    62.44670063
 H     49  41  37     1.099265593948   112.40382846   307.41299171
 H     49  41  37     1.101570520342   110.89072271    67.84311554
 H     49  41  37     1.099497753949   111.01808012   187.52214019
 H     50  41  37     1.100115031943   112.05865605    50.48189515
 H     50  41  37     1.099193299507   110.30878556   169.93608947
 H     50  41  37     1.101241168414   112.28636545   289.16226248
 C      1   2   3     2.093790026239    89.13963935   323.45358583
 N     64   1   2     1.195007086970   173.35947513    87.83472637
 C     65  64   1     1.369605396069   165.66524719    16.29385315
 C     66  65  64     1.415005456094   118.79845988   222.89615348
 C     66  65  64     1.417718223348   118.81278141    40.75657060
 C     67  66  65     1.396247227412   117.68320663   177.26260324
 C     67  66  65     1.512443098048   119.54778617   359.94926275
 C     68  66  65     1.396675887616   117.36158742   183.07563119
 C     68  66  65     1.513217454988   120.27769537     5.11298450
 C     69  67  66     1.393960751413   121.02664378   359.81024746
 H     69  67  66     1.092496119339   119.48065252   180.11196373
 H     70  67  66     1.105955053207   106.34327190   319.61125433
 C     70  67  66     1.518327898391   113.96099714   201.07813979
 C     70  67  66     1.528824899594   110.44417536    75.42676042
 H     71  68  66     1.092583104089   119.36438674   179.52446195
 H     72  68  66     1.106416049374   107.28381405   320.90977599
 C     72  68  66     1.528457130170   109.93873467    77.46244238
 C     72  68  66     1.519665808668   113.94066670   202.02411642
 H     73  69  67     1.092687415978   119.86536655   180.32745532
 H     76  70  67     1.100863883196   112.10199957   291.53016458
 H     76  70  67     1.099993099770   112.29380372    52.87923632
 H     76  70  67     1.099895929414   110.26551467   172.81431435
 H     77  70  67     1.101547408795   111.24114644   179.77182725
 H     77  70  67     1.099414861255   111.72604653   299.75492951
 H     77  70  67     1.102354467533   111.08928860    60.19584012
 H     80  72  68     1.100383298600   112.38004342   299.99501453
 H     80  72  68     1.101425856285   110.71786943    60.31992430
 H     80  72  68     1.099807683935   110.91508903   179.31072383
 H     81  72  68     1.099821251089   112.48398029    52.73505259
 H     81  72  68     1.099952146545   110.16178787   172.59443388
 H     81  72  68     1.100964003079   112.15735063   291.27366898
 C      1   2   3     2.103001531576   173.47312040   301.65254060
 N     95   1   2     1.194453800539   172.35918835   354.97642173
 C     96  95   1     1.367632736430   166.47797680   320.06656638
 C     97  96  95     1.417804247180   118.66951044   351.55831526
 C     97  96  95     1.415232411915   118.84138606   168.69773975
 C     98  97  96     1.396747880159   117.28072548   179.61487089
 C     98  97  96     1.514221202001   120.34997025   359.04072366
 C     99  97  96     1.395912690703   117.61285599   180.30419912
 C     99  97  96     1.513411691549   119.62217000   359.69154371
 C    102  99  97     1.394052016006   121.02034215     0.83461993
 H    100  98  97     1.092614846607   119.36455882   179.91284972
 H    101  98  97     1.106236189476   107.11169874    37.28875447
 C    101  98  97     1.527941599196   110.67718494   280.85046648
 C    101  98  97     1.519390907950   113.61462497   155.56251814
 H    102  99  97     1.092482732159   119.51753778   180.03498630
 H    103  99  97     1.106247261320   106.35992354   323.96851436
 C    103  99  97     1.526609500336   111.06712416    80.10881903
 C    103  99  97     1.519574985885   113.39350385   205.95428983
 H    104 102  99     1.092687340588   119.85073479   179.93717840
 H    107 101  98     1.101744790053   110.81779585   301.30627139
 H    107 101  98     1.100472296114   112.12804816    61.96691186
 H    107 101  98     1.100210045847   110.79916836   182.06079597
 H    108 101  98     1.100166161743   110.10861524   188.02332007
 H    108 101  98     1.099982081546   112.20641585   307.72077278
 H    108 101  98     1.100785797737   112.30010198    69.24035151
 H    111 103  99     1.098756001947   112.02113225   303.36621864
 H    111 103  99     1.101319151308   110.99010748    63.70360325
 H    111 103  99     1.099979614980   110.98442269   183.29899319
 H    112 103  99     1.100392551002   112.21440314    51.91758076
 H    112 103  99     1.099444422463   110.41686629   171.89988606
 H    112 103  99     1.100821564885   112.13754073   290.76074449
 C      1   2   3     2.087721063226    86.79804188   229.98032744
 N    126   1   2     1.195765147955   174.89132312   351.53242970
 C    127 126   1     1.367562181365   166.92994619    48.22578941
 C    128 127 126     1.418589826038   118.55488032    27.56555075
 C    128 127 126     1.416694365143   119.07740838   207.49861845
 C    129 128 127     1.396169404054   117.50587248   181.68066427
 C    129 128 127     1.513465716661   120.00474404   359.72359932
 C    130 128 127     1.396900532242   117.38901788   178.14991673
 C    130 128 127     1.515467420719   120.06229947   358.63515215
 C    131 129 128     1.393650217187   121.13016716   359.66806312
 H    131 129 128     1.092580434309   119.39015137   179.78778697
 H    132 129 128     1.106607731676   106.97776990    38.40002483
 C    132 129 128     1.527802940301   110.24799150   282.25603791
 C    132 129 128     1.519197322216   113.71662000   157.01109969
 H    133 130 128     1.091842393453   119.54066989   180.24022124
 H    134 130 128     1.107229156935   106.42381027   316.86533135
 C    134 130 128     1.528236704572   111.81260906    72.98519442
 C    134 130 128     1.519167876236   113.07085699   198.52490890
 H    135 131 129     1.092660710715   119.85974194   179.85469928
 H    138 132 129     1.102157273487   110.97267381   294.10927619
 H    138 132 129     1.098083250277   111.96907543    54.33755563
 H    138 132 129     1.100100288607   111.32593335   174.08547184
 H    139 132 129     1.099639129210   110.36042127   186.89340812
 H    139 132 129     1.099934651664   112.23942759   306.73173718
 H    139 132 129     1.100703533363   112.14078753    68.07490693
 H    142 134 130     1.099965200580   112.39292039   303.68089180
 H    142 134 130     1.101645076674   111.03458257    64.71409076
 H    142 134 130     1.101686693343   110.68841055   183.63359508
 H    143 134 130     1.099904574265   112.33638294    54.39054381
 H    143 134 130     1.098803210389   110.67926291   174.59748135
 H    143 134 130     1.100704061525   111.88097965   293.20079297
 C      1   2   3     2.101368791769    92.00441676   141.69163543
 N    157   1   2     1.197985467462   176.76843096    79.23266409
 C    158 157   1     1.372138969630   162.11960466    51.73982226
 C    159 158 157     1.413688646713   120.01932565   189.26661845
 C    159 158 157     1.423106870155   118.30955574     8.38442750
 C    160 159 158     1.398485714819   117.96117887   178.14775282
 C    160 159 158     1.512540642661   122.23817585   357.24022551
 C    161 159 158     1.394978574073   117.67248583   181.86462254
 C    161 159 158     1.513698515577   120.39843689     3.48121016
 C    162 160 159     1.390000967649   121.32238153     0.23715169
 H    162 160 159     1.093875371013   118.94658319   180.18287420
 H    163 160 159     1.103755522672   107.58503347     0.84505887
 C    163 160 159     1.526068039461   110.55590435   242.89192516
 C    163 160 159     1.524292123575   111.74512728   118.99075520
 H    164 161 159     1.092083119524   119.36100716   179.76192636
 H    165 161 159     1.108457836256   107.20489557   317.20575749
 C    165 161 159     1.528913819799   110.61684975    74.02905455
 C    165 161 159     1.519048505556   113.40355587   198.51755858
 H    166 162 160     1.092629947650   120.14645093   180.16884639
 H    169 163 160     1.101194280727   111.16899147   294.88035388
 H    169 163 160     1.099773067482   112.11144859    54.85926169
 H    169 163 160     1.100319421216   111.39806577   175.61778693
 H    170 163 160     1.100548430619   111.01071184   185.31580343
 H    170 163 160     1.098628630442   112.04184535   305.71954778
 H    170 163 160     1.101251550118   111.41167904    66.05307551
 H    173 165 161     1.099547459600   112.64215205   301.92822298
 H    173 165 161     1.101598685036   110.66020051    62.42745974
 H    173 165 161     1.100829697174   110.81654104   181.34952289
 H    174 165 161     1.099547754587   112.24938023    51.64200422
 H    174 165 161     1.099356491388   110.60151087   171.89295199
 H    174 165 161     1.101002296717   111.94421641   290.73384980

---------------------------
INTERNAL COORDINATES (A.U.)
---------------------------
 W      0   0   0     0.000000000000     0.00000000     0.00000000
 C      1   0   0     3.936334773283     0.00000000     0.00000000
 N      2   1   0     2.257688008680   176.96063271     0.00000000
 C      3   2   1     2.582547878781   165.40839778   156.89903430
 C      4   3   2     2.675420653433   119.03432184   187.46448990
 C      4   3   2     2.679873790930   118.41082330     6.96202971
 C      5   4   3     2.638690724076   117.45539159   178.68096113
 C      6   4   3     2.638687406438   117.30590482   181.52359434
 C      8   6   4     2.634791811185   121.19231308   359.53370309
 H      7   5   4     2.064249288714   119.54500072   180.32328035
 H      8   6   4     2.064819566712   119.36040019   179.68579184
 H      9   8   6     2.064934485765   119.78660801   179.85907719
 C      5   4   3     2.860319414251   119.58305483   357.25918684
 H     13   5   4     2.086576206603   106.46343131    41.03415003
 C      6   4   3     2.860605988791   120.16408352     4.73052702
 H     15   6   4     2.088126197942   107.55414950   322.84520850
 C     13   5   4     2.888784863309   111.11687864   285.36069896
 H     17  13   5     2.082270098695   111.26086737   296.52231157
 H     17  13   5     2.079740764937   112.02884386    57.06800522
 H     17  13   5     2.081343776117   110.78416663   177.00001819
 C     13   5   4     2.870009266747   113.63123567   159.34528394
 H     21  13   5     2.077777753192   110.49556347   187.41141010
 H     21  13   5     2.078810047438   112.19690165   307.35643993
 H     21  13   5     2.080530079381   112.12517292    68.57624973
 C     15   6   4     2.890479849981   109.86420965    78.73400062
 H     25  15   6     2.081992479805   112.21932732   303.09452845
 H     25  15   6     2.081640413478   110.71068197    63.19603172
 H     25  15   6     2.080413782862   111.14682644   182.69905933
 C     15   6   4     2.870583588981   113.70283632   204.32218815
 H     29  15   6     2.080052184607   111.97720994    54.23742631
 H     29  15   6     2.077715204395   110.39853610   173.81308092
 H     29  15   6     2.080281626871   112.38212813   292.87207664
 C      1   2   3     3.949452556111    82.62475560    48.00622120
 N     33   1   2     2.258288262966   168.38181912   338.07024075
 C     34  33   1     2.581846297735   165.87523308    69.15030533
 C     35  34  33     2.673116987462   118.97584049   207.83028104
 C     35  34  33     2.677899735852   118.41918061    25.05453308
 C     36  35  34     2.638766504962   117.49281086   180.03770466
 C     36  35  34     2.859474777009   119.28246001     4.53089778
 C     37  35  34     2.638155075593   117.35357735   180.29944124
 C     37  35  34     2.859281399103   119.59884987   359.43003512
 C     38  36  35     2.635649663353   121.00877821   358.93830139
 H     38  36  35     2.064587897715   119.57306038   179.51882880
 H     39  36  35     2.090448306737   107.03407035   317.90506572
 C     39  36  35     2.869099318998   114.00953953   198.55465056
 C     39  36  35     2.891816415439   109.69554037    73.77593996
 H     40  37  35     2.064861945378   119.44371152   179.94719192
 H     41  37  35     2.092682666729   106.49402210   320.59549038
 C     41  37  35     2.887159142605   111.24863127    76.74563154
 C     41  37  35     2.870607146801   113.41426444   203.07170273
 H     42  38  36     2.064984223916   119.78971981   179.91391265
 H     45  39  36     2.080231228356   111.98348025   293.99041829
 H     45  39  36     2.078662046747   112.30035537    55.23228939
 H     45  39  36     2.078119258203   110.42039664   175.42966188
 H     46  39  36     2.080410318951   111.05015810   181.58788481
 H     46  39  36     2.080887498483   112.13430434   302.04284859
 H     46  39  36     2.082862653001   110.78390798    62.44670063
 H     49  41  37     2.077310921003   112.40382846   307.41299171
 H     49  41  37     2.081666600647   110.89072271    67.84311554
 H     49  41  37     2.077749639824   111.01808012   187.52214019
 H     50  41  37     2.078916126181   112.05865605    50.48189515
 H     50  41  37     2.077174304309   110.30878556   169.93608947
 H     50  41  37     2.081044215701   112.28636545   289.16226248
 C      1   2   3     3.956689731527    89.13963935   323.45358583
 N     64   1   2     2.258236122469   173.35947513    87.83472637
 C     65  64   1     2.588179110112   165.66524719    16.29385315
 C     66  65  64     2.673972790022   118.79845988   222.89615348
 C     66  65  64     2.679099177198   118.81278141    40.75657060
 C     67  66  65     2.638524875056   117.68320663   177.26260324
 C     67  66  65     2.858103248450   119.54778617   359.94926275
 C     68  66  65     2.639334925446   117.36158742   183.07563119
 C     68  66  65     2.859566570997   120.27769537     5.11298450
 C     69  67  66     2.634204061606   121.02664378   359.81024746
 H     69  67  66     2.064518467922   119.48065252   180.11196373
 H     70  67  66     2.089952166987   106.34327190   319.61125433
 C     70  67  66     2.869223909452   113.96099714   201.07813979
 C     70  67  66     2.889060366952   110.44417536    75.42676042
 H     71  68  66     2.064682845277   119.36438674   179.52446195
 H     72  68  66     2.090823323492   107.28381405   320.90977599
 C     72  68  66     2.888365383461   109.93873467    77.46244238
 C     72  68  66     2.871752193466   113.94066670   202.02411642
 H     73  69  67     2.064879966181   119.86536655   180.32745532
 H     76  70  67     2.080331249965   112.10199957   291.53016458
 H     76  70  67     2.078685707768   112.29380372    52.87923632
 H     76  70  67     2.078502082407   110.26551467   172.81431435
 H     77  70  67     2.081622926152   111.24114644   179.77182725
 H     77  70  67     2.077592995336   111.72604653   299.75492951
 H     77  70  67     2.083148046141   111.08928860    60.19584012
 H     80  72  68     2.079423076694   112.38004342   299.99501453
 H     80  72  68     2.081393225198   110.71786943    60.31992430
 H     80  72  68     2.078335322619   110.91508903   179.31072383
 H     81  72  68     2.078360960824   112.48398029    52.73505259
 H     81  72  68     2.078608317390   110.16178787   172.59443388
 H     81  72  68     2.080520449124   112.15735063   291.27366898
 C      1   2   3     3.974096953895   173.47312040   301.65254060
 N     95   1   2     2.257190562639   172.35918835   354.97642173
 C     96  95   1     2.584451323637   166.47797680   320.06656638
 C     97  96  95     2.679261738681   118.66951044   351.55831526
 C     97  96  95     2.674401674368   118.84138606   168.69773975
 C     98  97  96     2.639470971636   117.28072548   179.61487089
 C     98  97  96     2.861463377959   120.34997025   359.04072366
 C     99  97  96     2.637892692295   117.61285599   180.30419912
 C     99  97  96     2.859933624901   119.62217000   359.69154371
 C    102  99  97     2.634376526693   121.02034215     0.83461993
 H    100  98  97     2.064742829943   119.36455882   179.91284972
 H    101  98  97     2.090483437542   107.11169874    37.28875447
 C    101  98  97     2.887391171107   110.67718494   280.85046648
 C    101  98  97     2.871232706395   113.61462497   155.56251814
 H    102  99  97     2.064493169818   119.51753778   180.03498630
 H    103  99  97     2.090504360295   106.35992354   323.96851436
 C    103  99  97     2.884873869077   111.06712416    80.10881903
 C    103  99  97     2.871580563279   113.39350385   205.95428983
 H    104 102  99     2.064879823715   119.85073479   179.93717840
 H    107 101  98     2.081995922674   110.81779585   301.30627139
 H    107 101  98     2.079591257623   112.12804816    61.96691186
 H    107 101  98     2.079095676439   110.79916836   182.06079597
 H    108 101  98     2.079012747502   110.10861524   188.02332007
 H    108 101  98     2.078664886343   112.20641585   307.72077278
 H    108 101  98     2.080183689833   112.30010198    69.24035151
 H    111 103  99     2.076347931682   112.02113225   303.36621864
 H    111 103  99     2.081191582015   110.99010748    63.70360325
 H    111 103  99     2.078660225208   110.98442269   183.29899319
 H    112 103  99     2.079440561201   112.21440314    51.91758076
 H    112 103  99     2.077648857923   110.41686629   171.89988606
 H    112 103  99     2.080251279947   112.13754073   290.76074449
 C      1   2   3     3.945221053515    86.79804188   229.98032744
 N    126   1   2     2.259668650124   174.89132312   351.53242970
 C    127 126   1     2.584317993887   166.92994619    48.22578941
 C    128 127 126     2.680746267579   118.55488032    27.56555075
 C    128 127 126     2.677164365590   119.07740838   207.49861845
 C    129 128 127     2.638377810222   117.50587248   181.68066427
 C    129 128 127     2.860035717569   120.00474404   359.72359932
 C    130 128 127     2.639759442267   117.38901788   178.14991673
 C    130 128 127     2.863818390039   120.06229947   358.63515215
 C    131 129 128     2.633617236964   121.13016716   359.66806312
 H    131 129 128     2.064677800124   119.39015137   179.78778697
 H    132 129 128     2.091185550548   106.97776990    38.40002483
 C    132 129 128     2.887129143768   110.24799150   282.25603791
 C    132 129 128     2.870866882375   113.71662000   157.01109969
 H    133 130 128     2.063283105031   119.54066989   180.24022124
 H    134 130 128     2.092359874099   106.42381027   316.86533135
 C    134 130 128     2.887948839447   111.81260906    72.98519442
 C    134 130 128     2.870811237536   113.07085699   198.52490890
 H    135 131 129     2.064829500548   119.85974194   179.85469928
 H    138 132 129     2.082775403400   110.97267381   294.10927619
 H    138 132 129     2.075076615269   111.96907543    54.33755563
 H    138 132 129     2.078888265315   111.32593335   174.08547184
 H    139 132 129     2.078016800350   110.36042127   186.89340812
 H    139 132 129     2.078575256855   112.23942759   306.73173718
 H    139 132 129     2.080028232695   112.14078753    68.07490693
 H    142 134 130     2.078632985941   112.39292039   303.68089180
 H    142 134 130     2.081807491696   111.03458257    64.71409076
 H    142 134 130     2.081886135804   110.68841055   183.63359508
 H    143 134 130     2.078518418808   112.33638294    54.39054381
 H    143 134 130     2.076437142709   110.67926291   174.59748135
 H    143 134 130     2.080029230777   111.88097965   293.20079297
 C      1   2   3     3.971011522813    92.00441676   141.69163543
 N    157   1   2     2.263864445920   176.76843096    79.23266409
 C    158 157   1     2.592966870281   162.11960466    51.73982226
 C    159 158 157     2.671484380921   120.01932565   189.26661845
 C    159 158 157     2.689282243895   118.30955574     8.38442750
 C    160 159 158     2.642755003208   117.96117887   178.14775282
 C    160 159 158     2.858287581054   122.23817585   357.24022551
 C    161 159 158     2.636127467685   117.67248583   181.86462254
 C    161 159 158     2.860475643764   120.39843689     3.48121016
 C    162 160 159     2.626721154743   121.32238153     0.23715169
 H    162 160 159     2.067124875855   118.94658319   180.18287420
 H    163 160 159     2.085795656653   107.58503347     0.84505887
 C    163 160 159     2.883850656311   110.55590435   242.89192516
 C    163 160 159     2.880494661650   111.74512728   118.99075520
 H    164 161 159     2.063738011379   119.36100716   179.76192636
 H    165 161 159     2.094681741523   107.20489557   317.20575749
 C    165 161 159     2.889228401788   110.61684975    74.02905455
 C    165 161 159     2.870585659644   113.40355587   198.51755858
 H    166 162 160     2.064771366779   120.14645093   180.16884639
 H    169 163 160     2.080955610814   111.16899147   294.88035388
 H    169 163 160     2.078269907003   112.11144859    54.85926169
 H    169 163 160     2.079302365933   111.39806577   175.61778693
 H    170 163 160     2.079735130986   111.01071184   185.31580343
 H    170 163 160     2.076107234420   112.04184535   305.71954778
 H    170 163 160     2.081063834279   111.41167904    66.05307551
 H    173 165 161     2.077843569893   112.64215205   301.92822298
 H    173 165 161     2.081719824207   110.66020051    62.42745974
 H    173 165 161     2.080266647747   110.81654104   181.34952289
 H    174 165 161     2.077844127337   112.24938023    51.64200422
 H    174 165 161     2.077482692273   110.60151087   171.89295199
 H    174 165 161     2.080592813613   111.94421641   290.73384980

---------------------
BASIS SET INFORMATION
---------------------
There are 4 groups of distinct atoms

 Group   1 Type W   : 7s6p5d1f contracted to 6s3p2d1f pattern {211111/411/41/1}
 Group   2 Type C   : 7s4p1d contracted to 3s2p1d pattern {511/31/1}
 Group   3 Type N   : 7s4p1d contracted to 3s2p1d pattern {511/31/1}
 Group   4 Type H   : 4s1p contracted to 2s1p pattern {31/1}

Atom   0W    basis set group =>   1
Atom   1C    basis set group =>   2
Atom   2N    basis set group =>   3
Atom   3C    basis set group =>   2
Atom   4C    basis set group =>   2
Atom   5C    basis set group =>   2
Atom   6C    basis set group =>   2
Atom   7C    basis set group =>   2
Atom   8C    basis set group =>   2
Atom   9H    basis set group =>   4
Atom  10H    basis set group =>   4
Atom  11H    basis set group =>   4
Atom  12C    basis set group =>   2
Atom  13H    basis set group =>   4
Atom  14C    basis set group =>   2
Atom  15H    basis set group =>   4
Atom  16C    basis set group =>   2
Atom  17H    basis set group =>   4
Atom  18H    basis set group =>   4
Atom  19H    basis set group =>   4
Atom  20C    basis set group =>   2
Atom  21H    basis set group =>   4
Atom  22H    basis set group =>   4
Atom  23H    basis set group =>   4
Atom  24C    basis set group =>   2
Atom  25H    basis set group =>   4
Atom  26H    basis set group =>   4
Atom  27H    basis set group =>   4
Atom  28C    basis set group =>   2
Atom  29H    basis set group =>   4
Atom  30H    basis set group =>   4
Atom  31H    basis set group =>   4
Atom  32C    basis set group =>   2
Atom  33N    basis set group =>   3
Atom  34C    basis set group =>   2
Atom  35C    basis set group =>   2
Atom  36C    basis set group =>   2
Atom  37C    basis set group =>   2
Atom  38C    basis set group =>   2
Atom  39C    basis set group =>   2
Atom  40C    basis set group =>   2
Atom  41C    basis set group =>   2
Atom  42H    basis set group =>   4
Atom  43H    basis set group =>   4
Atom  44C    basis set group =>   2
Atom  45C    basis set group =>   2
Atom  46H    basis set group =>   4
Atom  47H    basis set group =>   4
Atom  48C    basis set group =>   2
Atom  49C    basis set group =>   2
Atom  50H    basis set group =>   4
Atom  51H    basis set group =>   4
Atom  52H    basis set group =>   4
Atom  53H    basis set group =>   4
Atom  54H    basis set group =>   4
Atom  55H    basis set group =>   4
Atom  56H    basis set group =>   4
Atom  57H    basis set group =>   4
Atom  58H    basis set group =>   4
Atom  59H    basis set group =>   4
Atom  60H    basis set group =>   4
Atom  61H    basis set group =>   4
Atom  62H    basis set group =>   4
Atom  63C    basis set group =>   2
Atom  64N    basis set group =>   3
Atom  65C    basis set group =>   2
Atom  66C    basis set group =>   2
Atom  67C    basis set group =>   2
Atom  68C    basis set group =>   2
Atom  69C    basis set group =>   2
Atom  70C    basis set group =>   2
Atom  71C    basis set group =>   2
Atom  72C    basis set group =>   2
Atom  73H    basis set group =>   4
Atom  74H    basis set group =>   4
Atom  75C    basis set group =>   2
Atom  76C    basis set group =>   2
Atom  77H    basis set group =>   4
Atom  78H    basis set group =>   4
Atom  79C    basis set group =>   2
Atom  80C    basis set group =>   2
Atom  81H    basis set group =>   4
Atom  82H    basis set group =>   4
Atom  83H    basis set group =>   4
Atom  84H    basis set group =>   4
Atom  85H    basis set group =>   4
Atom  86H    basis set group =>   4
Atom  87H    basis set group =>   4
Atom  88H    basis set group =>   4
Atom  89H    basis set group =>   4
Atom  90H    basis set group =>   4
Atom  91H    basis set group =>   4
Atom  92H    basis set group =>   4
Atom  93H    basis set group =>   4
Atom  94C    basis set group =>   2
Atom  95N    basis set group =>   3
Atom  96C    basis set group =>   2
Atom  97C    basis set group =>   2
Atom  98C    basis set group =>   2
Atom  99C    basis set group =>   2
Atom 100C    basis set group =>   2
Atom 101C    basis set group =>   2
Atom 102C    basis set group =>   2
Atom 103C    basis set group =>   2
Atom 104H    basis set group =>   4
Atom 105H    basis set group =>   4
Atom 106C    basis set group =>   2
Atom 107C    basis set group =>   2
Atom 108H    basis set group =>   4
Atom 109H    basis set group =>   4
Atom 110C    basis set group =>   2
Atom 111C    basis set group =>   2
Atom 112H    basis set group =>   4
Atom 113H    basis set group =>   4
Atom 114H    basis set group =>   4
Atom 115H    basis set group =>   4
Atom 116H    basis set group =>   4
Atom 117H    basis set group =>   4
Atom 118H    basis set group =>   4
Atom 119H    basis set group =>   4
Atom 120H    basis set group =>   4
Atom 121H    basis set group =>   4
Atom 122H    basis set group =>   4
Atom 123H    basis set group =>   4
Atom 124H    basis set group =>   4
Atom 125C    basis set group =>   2
Atom 126N    basis set group =>   3
Atom 127C    basis set group =>   2
Atom 128C    basis set group =>   2
Atom 129C    basis set group =>   2
Atom 130C    basis set group =>   2
Atom 131C    basis set group =>   2
Atom 132C    basis set group =>   2
Atom 133C    basis set group =>   2
Atom 134C    basis set group =>   2
Atom 135H    basis set group =>   4
Atom 136H    basis set group =>   4
Atom 137C    basis set group =>   2
Atom 138C    basis set group =>   2
Atom 139H    basis set group =>   4
Atom 140H    basis set group =>   4
Atom 141C    basis set group =>   2
Atom 142C    basis set group =>   2
Atom 143H    basis set group =>   4
Atom 144H    basis set group =>   4
Atom 145H    basis set group =>   4
Atom 146H    basis set group =>   4
Atom 147H    basis set group =>   4
Atom 148H    basis set group =>   4
Atom 149H    basis set group =>   4
Atom 150H    basis set group =>   4
Atom 151H    basis set group =>   4
Atom 152H    basis set group =>   4
Atom 153H    basis set group =>   4
Atom 154H    basis set group =>   4
Atom 155H    basis set group =>   4
Atom 156C    basis set group =>   2
Atom 157N    basis set group =>   3
Atom 158C    basis set group =>   2
Atom 159C    basis set group =>   2
Atom 160C    basis set group =>   2
Atom 161C    basis set group =>   2
Atom 162C    basis set group =>   2
Atom 163C    basis set group =>   2
Atom 164C    basis set group =>   2
Atom 165C    basis set group =>   2
Atom 166H    basis set group =>   4
Atom 167H    basis set group =>   4
Atom 168C    basis set group =>   2
Atom 169C    basis set group =>   2
Atom 170H    basis set group =>   4
Atom 171H    basis set group =>   4
Atom 172C    basis set group =>   2
Atom 173C    basis set group =>   2
Atom 174H    basis set group =>   4
Atom 175H    basis set group =>   4
Atom 176H    basis set group =>   4
Atom 177H    basis set group =>   4
Atom 178H    basis set group =>   4
Atom 179H    basis set group =>   4
Atom 180H    basis set group =>   4
Atom 181H    basis set group =>   4
Atom 182H    basis set group =>   4
Atom 183H    basis set group =>   4
Atom 184H    basis set group =>   4
Atom 185H    basis set group =>   4
Atom 186H    basis set group =>   4
---------------------------------
AUXILIARY/J BASIS SET INFORMATION
---------------------------------
There are 4 groups of distinct atoms

 Group   1 Type W   : 11s5p5d3f3g contracted to 8s5p5d2f3g pattern {41111111/11111/11111/21/111}
 Group   2 Type C   : 12s5p4d2f1g contracted to 6s4p3d1f1g pattern {711111/2111/211/2/1}
 Group   3 Type N   : 12s5p4d2f1g contracted to 6s4p3d1f1g pattern {711111/2111/211/2/1}
 Group   4 Type H   : 5s2p1d contracted to 3s1p1d pattern {311/2/1}

Atom   0W    basis set group =>   1
Atom   1C    basis set group =>   2
Atom   2N    basis set group =>   3
Atom   3C    basis set group =>   2
Atom   4C    basis set group =>   2
Atom   5C    basis set group =>   2
Atom   6C    basis set group =>   2
Atom   7C    basis set group =>   2
Atom   8C    basis set group =>   2
Atom   9H    basis set group =>   4
Atom  10H    basis set group =>   4
Atom  11H    basis set group =>   4
Atom  12C    basis set group =>   2
Atom  13H    basis set group =>   4
Atom  14C    basis set group =>   2
Atom  15H    basis set group =>   4
Atom  16C    basis set group =>   2
Atom  17H    basis set group =>   4
Atom  18H    basis set group =>   4
Atom  19H    basis set group =>   4
Atom  20C    basis set group =>   2
Atom  21H    basis set group =>   4
Atom  22H    basis set group =>   4
Atom  23H    basis set group =>   4
Atom  24C    basis set group =>   2
Atom  25H    basis set group =>   4
Atom  26H    basis set group =>   4
Atom  27H    basis set group =>   4
Atom  28C    basis set group =>   2
Atom  29H    basis set group =>   4
Atom  30H    basis set group =>   4
Atom  31H    basis set group =>   4
Atom  32C    basis set group =>   2
Atom  33N    basis set group =>   3
Atom  34C    basis set group =>   2
Atom  35C    basis set group =>   2
Atom  36C    basis set group =>   2
Atom  37C    basis set group =>   2
Atom  38C    basis set group =>   2
Atom  39C    basis set group =>   2
[...]
   308a -> 314a  :     0.013833 
   308a -> 318a  :     0.011316 
   309a -> 313a  :     0.036767 
   309a -> 314a  :     0.014770 
   309a -> 318a  :     0.015728 
   310a -> 329a  :     0.174524 
   310a -> 331a  :     0.020663 
   310a -> 332a  :     0.013641 
   310a -> 354a  :     0.010408 
   310a -> 368a  :     0.018938 
   311a -> 327a  :     0.016847 
   311a -> 328a  :     0.016105 
   312a -> 327a  :     0.017283 

STATE 38:  E=   0.197622 au      5.378 eV    43373.1 cm**-1 <S**2> =   0.000000
   299a -> 313a  :     0.011058 
   299a -> 314a  :     0.020222 
   299a -> 317a  :     0.011815 
   303a -> 323a  :     0.012501 
   305a -> 323a  :     0.014379 
   307a -> 313a  :     0.033255 
   307a -> 318a  :     0.013373 
   308a -> 318a  :     0.010063 
   309a -> 313a  :     0.029071 
   310a -> 327a  :     0.029470 
   310a -> 329a  :     0.109002 
   310a -> 330a  :     0.010634 
   310a -> 331a  :     0.042983 
   310a -> 333a  :     0.027165 
   310a -> 353a  :     0.011161 
   310a -> 355a  :     0.012283 
   310a -> 362a  :     0.011301 
   310a -> 368a  :     0.014595 
   310a -> 369a  :     0.019047 
   311a -> 327a  :     0.033849 
   311a -> 332a  :     0.015107 
   311a -> 334a  :     0.013342 
   311a -> 362a  :     0.010129 
   312a -> 328a  :     0.024528 
   312a -> 330a  :     0.014421 
   312a -> 333a  :     0.027304 

STATE 39:  E=   0.197217 au      5.367 eV    43284.2 cm**-1 <S**2> =   0.000000
   299a -> 313a  :     0.039090 
   302a -> 321a  :     0.019339 
   302a -> 323a  :     0.010115 
   302a -> 324a  :     0.014772 
   307a -> 313a  :     0.018063 
   307a -> 317a  :     0.020248 
   307a -> 318a  :     0.025143 
   308a -> 313a  :     0.021624 
   308a -> 317a  :     0.010039 
   310a -> 325a  :     0.026802 
   310a -> 326a  :     0.012285 
   310a -> 329a  :     0.016901 
   310a -> 332a  :     0.010113 
   311a -> 328a  :     0.013528 
   311a -> 330a  :     0.058857 
   311a -> 332a  :     0.010899 
   311a -> 333a  :     0.064828 
   312a -> 330a  :     0.019684 
   312a -> 332a  :     0.028660 

STATE 40:  E=   0.202999 au      5.524 eV    44553.1 cm**-1 <S**2> =   0.000000
   298a -> 314a  :     0.110800 
   298a -> 315a  :     0.017593 
   299a -> 313a  :     0.015374 
   299a -> 318a  :     0.017223 
   303a -> 321a  :     0.020023 
   303a -> 324a  :     0.012572 
   304a -> 322a  :     0.023733 
   305a -> 324a  :     0.014350 
   307a -> 314a  :     0.040156 
   308a -> 315a  :     0.014794 
   308a -> 317a  :     0.021579 
   308a -> 318a  :     0.039267 
   309a -> 313a  :     0.012337 
   309a -> 314a  :     0.061335 
   309a -> 315a  :     0.022357 
   309a -> 317a  :     0.021795 
   311a -> 318a  :     0.011519 
   312a -> 314a  :     0.014243 
   312a -> 332a  :     0.011279 
   312a -> 334a  :     0.015216 
   312a -> 351a  :     0.023335 
   312a -> 352a  :     0.010450 


-------------------------
TD-DFT-EXCITATION SPECTRA
-------------------------

Center of mass = ( -0.0023,  0.0213, -0.0136)
Calculating the Dipole integrals                  ... done
Transforming integrals                            ... done
Calculating the Linear Momentum integrals         ... done
Transforming integrals                            ... done
Calculating angular momentum integrals            ... done
Transforming integrals                            ... done

-----------------------------------------------------------------------------
         ABSORPTION SPECTRUM VIA TRANSITION ELECTRIC DIPOLE MOMENTS
-----------------------------------------------------------------------------
State   Energy    Wavelength  fosc         T2        TX        TY        TZ  
        (cm-1)      (nm)                 (au**2)    (au)      (au)      (au) 
-----------------------------------------------------------------------------
   1   21157.7    472.6   0.004602155   0.07161  -0.25248   0.08163   0.03467
   2   21272.0    470.1   0.006379641   0.09873   0.02296   0.31323   0.00968
   3   21163.4    472.5   0.102841849   1.59978  -0.54884   0.15419   1.12906
   4   21191.9    471.9   0.016777188   0.26063  -0.11737   0.35198  -0.35067
   5   21772.9    459.3   0.093038236   1.40677   0.69736  -0.79919  -0.53080
   6   22029.8    453.9   0.049169738   0.73479  -0.13813  -0.82358   0.19345
   7   23814.5    419.9   0.345352364   4.77415  -1.84594  -0.13187  -1.16158
   8   24208.1    413.1   0.441799616   6.00813   0.26135   2.20519  -1.03777
   9   24209.7    413.1   0.234901527   3.19427  -1.33796   0.40678   1.11295
  10   24805.5    403.1   0.121811289   1.61665  -0.81729   0.82833   0.51239
  11   26022.9    384.3   0.130084874   1.64568  -1.20198  -0.44296  -0.06874
  12   26635.4    375.4   0.152184705   1.88099  -0.35823   1.32007   0.10045
  13   26807.6    373.0   0.306410265   3.76288  -1.89734   0.40144  -0.04285
  14   27074.5    369.4   0.453245279   5.51122   1.56105   1.45172   0.98328
  15   28706.5    348.4   0.495643876   5.68415   1.02788   1.75626   1.24225
  16   28836.8    346.8   0.148503555   1.69537   0.67144   1.04547  -0.38926
  17   29449.9    339.6   0.791331376   8.84607   1.37660  -2.26177   1.35479
  18   29705.0    336.6   0.717639927   7.95340   1.99140  -0.30663  -1.97325
  19   32284.0    309.8   0.032660786   0.33305   0.18742  -0.53777   0.09346
  20   32438.0    308.3   0.030934287   0.31395  -0.13046  -0.16850   0.51821
  21   33445.3    299.0   0.174175557   1.71446   0.92179  -0.60752  -0.70405
  22   34456.2    290.2   0.089752330   0.85754   0.29754   0.51016  -0.71326
  23   34737.7    287.9   0.034270895   0.32479   0.10901   0.55261  -0.08677
  24   34672.4    288.4   0.044540116   0.42290   0.28043  -0.55910   0.17797
  25   34392.7    290.8   0.006102159   0.05841  -0.19236   0.05622  -0.13509
  26   36814.8    271.6   0.060179780   0.53815   0.66234   0.11210   0.29476
  27   34535.0    289.6   0.010533049   0.10041   0.25172  -0.14507   0.12648
  28   34586.6    289.1   0.000317651   0.00302  -0.05096   0.00877   0.01871
  29   34696.8    288.2   0.001304228   0.01237   0.09272   0.01642  -0.05924
  30   34643.2    288.7   0.001488350   0.01414   0.05206  -0.06760   0.08284
  31   35010.9    285.6   0.023999048   0.22567  -0.35410  -0.29150  -0.12373
  32   35037.5    285.4   0.020008170   0.18800   0.31108   0.21506   0.21207
  33   38029.7    263.0   0.008214275   0.07111   0.00702  -0.21089  -0.16305
  34   42060.5    237.8   0.008230831   0.06442  -0.22905  -0.07924  -0.07538
  35   42627.7    234.6   0.057448351   0.44367  -0.19510   0.42519  -0.47415
  36   43655.7    229.1   0.026060222   0.19652   0.42842   0.10762   0.03737
  37   43306.9    230.9   0.093444584   0.71035  -0.42875  -0.24455  -0.68317
  38   43373.1    230.6   0.158446913   1.20265  -0.88276  -0.53756  -0.36663
  39   43284.2    231.0   0.106872505   0.81285  -0.48946   0.63425   0.41354
  40   44553.1    224.5   0.007722902   0.05707   0.20043   0.12968  -0.00868

-----------------------------------------------------------------------------
         ABSORPTION SPECTRUM VIA TRANSITION VELOCITY DIPOLE MOMENTS
-----------------------------------------------------------------------------
State   Energy    Wavelength   fosc        P2         PX        PY        PZ  
        (cm-1)      (nm)                 (au**2)     (au)      (au)      (au) 
-----------------------------------------------------------------------------
   1   21157.7    472.6   0.005949540   0.00086   0.02770  -0.00853  -0.00450
   2   21272.0    470.1   0.008632144   0.00125  -0.00256  -0.03532  -0.00088
   3   21163.4    472.5   0.148302103   0.02145   0.06343  -0.01759  -0.13083
   4   21191.9    471.9   0.024831212   0.00360   0.01381  -0.04121   0.04132
   5   21772.9    459.3   0.131097134   0.01951  -0.08208   0.09423   0.06239
   6   22029.8    453.9   0.067773536   0.01020   0.01585   0.09732  -0.02197
   7   23814.5    419.9   0.502171088   0.08173   0.24209   0.01669   0.15116
   8   24208.1    413.1   0.643106699   0.10640  -0.03463  -0.29347   0.13813
   9   24209.7    413.1   0.343127454   0.05677   0.17817  -0.05567  -0.14809
  10   24805.5    403.1   0.174030336   0.02950   0.11115  -0.11078  -0.06984
  11   26022.9    384.3   0.178778001   0.03180   0.16689   0.06186   0.01086
  12   26635.4    375.4   0.217495134   0.03959   0.05171  -0.19157  -0.01484
  13   26807.6    373.0   0.459244389   0.08414   0.28363  -0.06062   0.00438
  14   27074.5    369.4   0.692823543   0.12820  -0.23835  -0.22180  -0.14899
  15   28706.5    348.4   0.716766773   0.14063  -0.16224  -0.27620  -0.19498
  16   28836.8    346.8   0.213188067   0.04202  -0.10598  -0.16452   0.06098
  17   29449.9    339.6   1.143633334   0.23019  -0.22150   0.36543  -0.21814
  18   29705.0    336.6   1.051448448   0.21346  -0.32580   0.05045   0.32369
  19   32284.0    309.8   0.044012074   0.00971  -0.03183   0.09164  -0.01731
  20   32438.0    308.3   0.045163997   0.01001   0.02262   0.02982  -0.09280
  21   33445.3    299.0   0.251001930   0.05737  -0.16883   0.11134   0.12835
  22   34456.2    290.2   0.125252093   0.02950  -0.05431  -0.09387   0.13317
  23   34737.7    287.9   0.046374521   0.01101  -0.01886  -0.10205   0.01549
  24   34672.4    288.4   0.063660544   0.01509  -0.05299   0.10530  -0.03449
  25   34392.7    290.8   0.008399630   0.00197   0.03552  -0.00917   0.02507
  26   36814.8    271.6   0.078865773   0.01984  -0.12663  -0.02336  -0.05713
  27   34535.0    289.6   0.014878457   0.00351  -0.04707   0.02726  -0.02351
  28   34586.6    289.1   0.000426696   0.00010   0.00950  -0.00177  -0.00272
  29   34696.8    288.2   0.001941136   0.00046  -0.01769  -0.00412   0.01142
  30   34643.2    288.7   0.002186350   0.00052  -0.01045   0.01263  -0.01578
  31   35010.9    285.6   0.034538584   0.00826   0.06822   0.05504   0.02410
  32   35037.5    285.4   0.029281663   0.00701  -0.06032  -0.04003  -0.04208
  33   38029.7    263.0   0.010321010   0.00268  -0.00537   0.04170   0.03025
  34   42060.5    237.8   0.009748058   0.00280   0.04763   0.01738   0.01522
  35   42627.7    234.6   0.064773836   0.01887   0.03945  -0.08817   0.09768
  36   43655.7    229.1   0.028618038   0.00854  -0.08929  -0.02243  -0.00787
  37   43306.9    230.9   0.101952416   0.03018   0.08821   0.05050   0.14087
  38   43373.1    230.6   0.177410352   0.05259   0.18548   0.11065   0.07711
  39   43284.2    231.0   0.121206304   0.03586   0.10504  -0.13193  -0.08613
  40   44553.1    224.5   0.008515700   0.00259  -0.04399  -0.02566  -0.00016

-------------------------------------------------------------------
                             CD SPECTRUM
-------------------------------------------------------------------
State  Energy     Wavelength     R         MX        MY        MZ   
       (cm-1)       (nm)     (1e40*cgs)   (au)      (au)      (au)  
-------------------------------------------------------------------
   1   21157.7    472.6      2.79051  -0.03357  -0.01860  -0.02993
   2   21272.0    470.1      5.20752   0.01557   0.03300   0.03631
   3   21163.4    472.5     32.47439  -0.00232   0.09561   0.04683
   4   21191.9    471.9     23.18857  -0.04232   0.09238  -0.03338
   5   21772.9    459.3     10.16308  -0.04522  -0.02062  -0.06897
   6   22029.8    453.9     -1.61160  -0.06539   0.01096  -0.01770
   7   23814.5    419.9    -78.58400   0.04208   0.09835   0.06547
   8   24208.1    413.1    -23.87320   0.10885  -0.03675  -0.00188
   9   24209.7    413.1     60.08442   0.05760   0.14354   0.13129
  10   24805.5    403.1      3.67151   0.06193  -0.00615   0.12392
  11   26022.9    384.3     -8.10614  -0.00164   0.02949   0.08885
  12   26635.4    375.4     62.34879   0.11478   0.13399  -0.03489
  13   26807.6    373.0    -109.69547   0.14332   0.11403   0.15238
  14   27074.5    369.4    -55.26345   0.04517  -0.08860  -0.06012
  15   28706.5    348.4    139.97224   0.22334   0.01223   0.03691
  16   28836.8    346.8     43.40605   0.00095   0.04938  -0.10226
  17   29449.9    339.6    -109.76358  -0.21877  -0.07583  -0.07616
  18   29705.0    336.6     74.35845  -0.16526  -0.23049  -0.21089
  19   32284.0    309.8    -48.02299  -0.12836   0.14461  -0.00040
  20   32438.0    308.3     13.33976   0.07833  -0.08752   0.04586
  21   33445.3    299.0     91.47977  -0.03268  -0.04966  -0.27554
  22   34456.2    290.2      1.11411   0.04471  -0.24316  -0.15859
  23   34737.7    287.9     37.81531   0.07183   0.12684  -0.02636
  24   34672.4    288.4     -0.16887  -0.05209  -0.02229   0.01005
  25   34392.7    290.8      1.55841  -0.01051   0.03691   0.00586
  26   36814.8    271.6     19.48500   0.07525  -0.17780   0.03875
  27   34535.0    289.6      6.05269   0.01118   0.00061   0.07995
  28   34586.6    289.1      0.23255   0.00631  -0.06113   0.07220
  29   34696.8    288.2     -4.95652  -0.14560   0.00703  -0.04846
  30   34643.2    288.7     -1.18955   0.04081   0.10131   0.02657
  31   35010.9    285.6     23.99980  -0.05156  -0.10032  -0.02754
  32   35037.5    285.4      6.91754   0.24174  -0.02719  -0.25783
  33   38029.7    263.0     13.93221  -0.00361  -0.01905  -0.15676
  34   42060.5    237.8     12.20250  -0.10638  -0.28856   0.28320
  35   42627.7    234.6     55.11915   0.13704   0.24553  -0.08279
  36   43655.7    229.1    -35.20096  -0.11909  -0.19136  -0.08156
  37   43306.9    230.9    -89.26557  -0.04077   0.06198   0.28055
  38   43373.1    230.6    -25.84780  -0.12664   0.11311   0.28860
  39   43284.2    231.0     39.59049  -0.12325   0.04069  -0.00521
  40   44553.1    224.5    -21.64318  -0.11192  -0.16524   0.23596

-------------------------------------------------------------------
         CD SPECTRUM VIA TRANSITION VELOCITY DIPOLE MOMENTS        
-------------------------------------------------------------------
State  Energy     Wavelength     R         MX        MY        MZ   
       (cm-1)       (nm)     (1e40*cgs)   (au)      (au)      (au)  
-------------------------------------------------------------------
   1   21157.7    472.6      3.11253  -0.03357  -0.01860  -0.02993
   2   21272.0    470.1      6.01961   0.01557   0.03300   0.03631
   3   21163.4    472.5     38.89357  -0.00232   0.09561   0.04683
   4   21191.9    471.9     28.17372  -0.04232   0.09238  -0.03338
   5   21772.9    459.3     12.04611  -0.04522  -0.02062  -0.06897
   6   22029.8    453.9     -1.96745  -0.06539   0.01096  -0.01770
   7   23814.5    419.9    -94.38477   0.04208   0.09835   0.06547
   8   24208.1    413.1    -28.87367   0.10885  -0.03675  -0.00188
   9   24209.7    413.1     73.39212   0.05760   0.14354   0.13129
  10   24805.5    403.1      4.54676   0.06193  -0.00615   0.12392
  11   26022.9    384.3    -10.00113  -0.00164   0.02949   0.08885
  12   26635.4    375.4     74.64658   0.11478   0.13399  -0.03489
  13   26807.6    373.0    -132.79253   0.14332   0.11403   0.15238
  14   27074.5    369.4    -68.18485   0.04517  -0.08860  -0.06012
  15   28706.5    348.4    168.72179   0.22334   0.01223   0.03691
  16   28836.8    346.8     51.88645   0.00095   0.04938  -0.10226
  17   29449.9    339.6    -131.26134  -0.21877  -0.07583  -0.07616
  18   29705.0    336.6     90.73929  -0.16526  -0.23049  -0.21089
  19   32284.0    309.8    -55.59232  -0.12836   0.14461  -0.00040
  20   32438.0    308.3     16.24910   0.07833  -0.08752   0.04586
  21   33445.3    299.0    109.44563  -0.03268  -0.04966  -0.27554
  22   34456.2    290.2      2.16752   0.04471  -0.24316  -0.15859
  23   34737.7    287.9     43.80796   0.07183   0.12684  -0.02636
  24   34672.4    288.4     -0.19908  -0.05209  -0.02229   0.01005
  25   34392.7    290.8      1.69969  -0.01051   0.03691   0.00586
  26   36814.8    271.6     21.32811   0.07525  -0.17780   0.03875
  27   34535.0    289.6      7.15957   0.01118   0.00061   0.07995
  28   34586.6    289.1      0.08417   0.00631  -0.06113   0.07220
  29   34696.8    288.2     -5.94637  -0.14560   0.00703  -0.04846
  30   34643.2    288.7     -1.29425   0.04081   0.10131   0.02657
  31   35010.9    285.6     28.67475  -0.05156  -0.10032  -0.02754
  32   35037.5    285.4      7.80857   0.24174  -0.02719  -0.25783
  33   38029.7    263.0     15.00916  -0.00361  -0.01905  -0.15676
  34   42060.5    237.8     14.19320  -0.10638  -0.28856   0.28320
  35   42627.7    234.6     59.05122   0.13704   0.24553  -0.08279
  36   43655.7    229.1    -36.90035  -0.11909  -0.19136  -0.08156
  37   43306.9    230.9    -93.31374  -0.04077   0.06198   0.28055
  38   43373.1    230.6    -26.90939  -0.12664   0.11311   0.28860
  39   43284.2    231.0     42.70617  -0.12325   0.04069  -0.00521
  40   44553.1    224.5    -21.19053  -0.11192  -0.16524   0.23596

Total run time:   237341.216 sec

           *** ORCA-CIS/TD-DFT FINISHED WITHOUT ERROR ***

Maximum memory used throughout the entire CIS-calculation: 14885.7 MB

-----------------------
CIS/TD-DFT TOTAL ENERGY
-----------------------

    E(SCF)  =  -3416.888946504 Eh
    DE(CIS) =      0.096401665 Eh (Root  1)
    ----------------------------- ---------
    E(tot)  =  -3416.792544839 Eh


-------------------------   --------------------
FINAL SINGLE POINT ENERGY     -3416.792544838667
-------------------------   --------------------


                            ***************************************
                            *     ORCA property calculations      *
                            ***************************************


  WARNING: The energy has been calculated at the MP2 level but the densities
           used in the property calculations are still SCF densities
           MP2 response densities have not been calculated 
           use %mp2 Density relaxed end
           or  %mp2 Density unrelaxed end

                                    ---------------------
                                    Active property flags
                                    ---------------------
   (+) Dipole Moment


------------------------------------------------------------------------------
                       ORCA ELECTRIC PROPERTIES CALCULATION
------------------------------------------------------------------------------

Dipole Moment Calculation                       ... on
Quadrupole Moment Calculation                   ... off
Polarizability Calculation                      ... off
GBWName                                         ... W-CN_1_SOS-wPBEPP86_def2SVP.gbw
Electron density                                ... W-CN_1_SOS-wPBEPP86_def2SVP.scfp
The origin for moment calculation is the CENTER OF MASS  = (-0.002320,  0.021342 -0.013623)

-------------
DIPOLE MOMENT
-------------
                                X             Y             Z
Electronic contribution:    -10.41780      35.42934     -38.21850
Nuclear contribution   :     10.53206     -35.59502      38.85603
                        -----------------------------------------
Total Dipole Moment    :      0.11426      -0.16568       0.63753
                        -----------------------------------------
Magnitude (a.u.)       :      0.66854
Magnitude (Debye)      :      1.69929



--------------------
Rotational spectrum 
--------------------
 
Rotational constants in cm-1:     0.000780     0.000732     0.000659 
Rotational constants in MHz :    23.398722    21.932989    19.758852 

 Dipole components along the rotational axes: 
x,y,z [a.u.] :     0.112106     0.165457     0.637966 
x,y,z [Debye]:     0.284950     0.420559     1.621581 

 

Timings for individual modules:

Sum of individual times         ...   249517.394 sec (=4158.623 min)
GTO integral calculation        ...       11.741 sec (=   0.196 min)   0.0 %
SCF iterations                  ...     3051.606 sec (=  50.860 min)   1.2 %
MP2 module                      ...     9108.965 sec (= 151.816 min)   3.7 %
CIS module                      ...   237345.083 sec (=3955.751 min)  95.1 %
                             ****ORCA TERMINATED NORMALLY****
TOTAL RUN TIME: 2 days 21 hours 18 minutes 45 seconds 152 msec
