
                                 *****************
                                 * O   R   C   A *
                                 *****************

                                            #,                                       
                                            ###                                      
                                            ####                                     
                                            #####                                    
                                            ######                                   
                                           ########,                                 
                                     ,,################,,,,,                         
                               ,,#################################,,                 
                          ,,##########################################,,             
                       ,#########################################, ''#####,          
                    ,#############################################,,   '####,        
                  ,##################################################,,,,####,       
                ,###########''''           ''''###############################       
              ,#####''   ,,,,##########,,,,          '''####'''          '####       
            ,##' ,,,,###########################,,,                        '##       
           ' ,,###''''                  '''############,,,                           
         ,,##''                                '''############,,,,        ,,,,,,###''
      ,#''                                            '''#######################'''  
     '                                                          ''''####''''         
             ,#######,   #######,   ,#######,      ##                                
            ,#'     '#,  ##    ##  ,#'     '#,    #''#        ######   ,####,        
            ##       ##  ##   ,#'  ##            #'  '#       #        #'  '#        
            ##       ##  #######   ##           ,######,      #####,   #    #        
            '#,     ,#'  ##    ##  '#,     ,#' ,#      #,         ##   #,  ,#        
             '#######'   ##     ##  '#######'  #'      '#     #####' # '####'        



                  #######################################################
                  #                        -***-                        #
                  #          Department of theory and spectroscopy      #
                  #    Directorship and core code : Frank Neese         #
                  #        Max Planck Institute fuer Kohlenforschung    #
                  #                Kaiser Wilhelm Platz 1               #
                  #                 D-45470 Muelheim/Ruhr               #
                  #                      Germany                        #
                  #                                                     #
                  #                  All rights reserved                #
                  #                        -***-                        #
                  #######################################################


                         Program Version 5.0.4 -  RELEASE  -


 With contributions from (in alphabetic order):
   Daniel Aravena         : Magnetic Suceptibility
   Michael Atanasov       : Ab Initio Ligand Field Theory (pilot matlab implementation)
   Alexander A. Auer      : GIAO ZORA, VPT2 properties, NMR spectrum
   Ute Becker             : Parallelization
   Giovanni Bistoni       : ED, misc. LED, open-shell LED, HFLD
   Martin Brehm           : Molecular dynamics
   Dmytro Bykov           : SCF Hessian
   Vijay G. Chilkuri      : MRCI spin determinant printing, contributions to CSF-ICE
   Dipayan Datta          : RHF DLPNO-CCSD density
   Achintya Kumar Dutta   : EOM-CC, STEOM-CC
   Dmitry Ganyushin       : Spin-Orbit,Spin-Spin,Magnetic field MRCI
   Miquel Garcia          : C-PCM and meta-GGA Hessian, CC/C-PCM, Gaussian charge scheme
   Yang Guo               : DLPNO-NEVPT2, F12-NEVPT2, CIM, IAO-localization
   Andreas Hansen         : Spin unrestricted coupled pair/coupled cluster methods
   Benjamin Helmich-Paris : MC-RPA, TRAH-SCF, COSX integrals
   Lee Huntington         : MR-EOM, pCC
   Robert Izsak           : Overlap fitted RIJCOSX, COSX-SCS-MP3, EOM
   Marcus Kettner         : VPT2
   Christian Kollmar      : KDIIS, OOCD, Brueckner-CCSD(T), CCSD density, CASPT2, CASPT2-K
   Simone Kossmann        : Meta GGA functionals, TD-DFT gradient, OOMP2, MP2 Hessian
   Martin Krupicka        : Initial AUTO-CI
   Lucas Lang             : DCDCAS
   Marvin Lechner         : AUTO-CI (C++ implementation), FIC-MRCC
   Dagmar Lenk            : GEPOL surface, SMD
   Dimitrios Liakos       : Extrapolation schemes; Compound Job, initial MDCI parallelization
   Dimitrios Manganas     : Further ROCIS development; embedding schemes
   Dimitrios Pantazis     : SARC Basis sets
   Anastasios Papadopoulos: AUTO-CI, single reference methods and gradients
   Taras Petrenko         : DFT Hessian,TD-DFT gradient, ASA, ECA, R-Raman, ABS, FL, XAS/XES, NRVS
   Peter Pinski           : DLPNO-MP2, DLPNO-MP2 Gradient
   Christoph Reimann      : Effective Core Potentials
   Marius Retegan         : Local ZFS, SOC
   Christoph Riplinger    : Optimizer, TS searches, QM/MM, DLPNO-CCSD(T), (RO)-DLPNO pert. Triples
   Tobias Risthaus        : Range-separated hybrids, TD-DFT gradient, RPA, STAB
   Michael Roemelt        : Original ROCIS implementation
   Masaaki Saitow         : Open-shell DLPNO-CCSD energy and density
   Barbara Sandhoefer     : DKH picture change effects
   Avijit Sen             : IP-ROCIS
   Kantharuban Sivalingam : CASSCF convergence, NEVPT2, FIC-MRCI
   Bernardo de Souza      : ESD, SOC TD-DFT
   Georgi Stoychev        : AutoAux, RI-MP2 NMR, DLPNO-MP2 response
   Willem Van den Heuvel  : Paramagnetic NMR
   Boris Wezisla          : Elementary symmetry handling
   Frank Wennmohs         : Technical directorship


 We gratefully acknowledge several colleagues who have allowed us to
 interface, adapt or use parts of their codes:
   Stefan Grimme, W. Hujo, H. Kruse, P. Pracht,  : VdW corrections, initial TS optimization,
                  C. Bannwarth, S. Ehlert          DFT functionals, gCP, sTDA/sTD-DF
   Ed Valeev, F. Pavosevic, A. Kumar             : LibInt (2-el integral package), F12 methods
   Garnet Chan, S. Sharma, J. Yang, R. Olivares  : DMRG
   Ulf Ekstrom                                   : XCFun DFT Library
   Mihaly Kallay                                 : mrcc  (arbitrary order and MRCC methods)
   Jiri Pittner, Ondrej Demel                    : Mk-CCSD
   Frank Weinhold                                : gennbo (NPA and NBO analysis)
   Christopher J. Cramer and Donald G. Truhlar   : smd solvation model
   Lars Goerigk                                  : TD-DFT with DH, B97 family of functionals
   V. Asgeirsson, H. Jonsson                     : NEB implementation
   FAccTs GmbH                                   : IRC, NEB, NEB-TS, DLPNO-Multilevel, CI-OPT
                                                   MM, QMMM, 2- and 3-layer-ONIOM, Crystal-QMMM,
                                                   LR-CPCM, SF, NACMEs, symmetry and pop. for TD-DFT,
                                                   nearIR, NL-DFT gradient (VV10), updates on ESD,
                                                   ML-optimized integration grids
   S Lehtola, MJT Oliveira, MAL Marques          : LibXC Library
   Liviu Ungur et al                             : ANISO software


 Your calculation uses the libint2 library for the computation of 2-el integrals
 For citations please refer to: http://libint.valeyev.net

 Your ORCA version has been built with support for libXC version: 5.1.0
 For citations please refer to: https://tddft.org/programs/libxc/

 This ORCA versions uses:
   CBLAS   interface :  Fast vector & matrix operations
   LAPACKE interface :  Fast linear algebra routines
   SCALAPACK package :  Parallel linear algebra routines
   Shared memory     :  Shared parallel matrices
   BLAS/LAPACK       :  OpenBLAS 0.3.15  USE64BITINT DYNAMIC_ARCH NO_AFFINITY Zen SINGLE_THREADED
        Core in use  :  Zen
   Copyright (c) 2011-2014, The OpenBLAS Project


Your calculation utilizes the SMD solvation module
Please cite in your paper:
A.V. Marenich, C.J. Cramer, D.G. Truhlar J. Phys. Chem. B, 113, (2009), 6378 

================================================================================

cite the ECPs for Ir [Def2-ECP] as follows:
Ce-Yb(ecp-28): M. Dolg, H. Stoll, H.Preuss, J. Chem. Phys., 1989, 90, 1730-1734.
Y-Cd(ecp-28), Hf-Hg(ecp-46): D. Andrae,U. Haeussermann, M. Dolg, H. Stoll, H. Preuss, Theor. Chim. Acta, 1990, 77, 123-141.
In-Sb(ecp-28), Tl-Bi(ecp-46): B. Metz, H. Stoll, M. Dolg, J. Chem. Phys., 2000, 113, 2563-2569.
Te-Xe(ecp-28), Po-Rn(ecp-46): K. A. Peterson, D. Figgen, E. Goll, H. Stoll, M. Dolg, J. Chem. Phys., 2003, 119, 11113-11123.
Rb(ecp-28), Cs(ecp-46): T. Leininger, A. Nicklass, W. Kuechle, H. Stoll, M. Dolg, A. Bergner, Chem. Phys. Lett., 1996, 255, 274-280.
Sr(ecp-28), Ba(ecp-46): M. Kaupp, P. V. Schleyer, H. Stoll and H. Preuss, J. Chem. Phys., 1991, 94, 1360-1366.
La(ecp-46): M. Dolg, H. Stoll, A. Savin, H. Preuss, Theor. Chim. Acta, 1989, 75, 173-194.
Lu(ecp-28): X. Cao, M. Dolg, J. Chem. Phys., 2001, 115, 7348-7355.

ECP parameters for Ir [Def2-ECP] have been obtained from:
TURBOMOLE (7.0.2)

----- Orbital basis set information -----
Your calculation utilizes the basis: def2-SVP
   F. Weigend and R. Ahlrichs, Phys. Chem. Chem. Phys. 7, 3297 (2005).

----- AuxJ basis set information -----
Your calculation utilizes the auxiliary basis: def2/J
   F. Weigend, Phys. Chem. Chem. Phys. 8, 1057 (2006).

----- AuxC basis set information -----
Your calculation utilizes the auxiliary basis: def2-SVP/C
  H-La, Hf-Rn : A. Hellweg, C. Hattig, S. Hofener and W. Klopper, Theor. Chem. Acc. 117, 587 (2007).
        Ce-Lu : J. Chmela and M. E. Harding, Mol. Phys. (2018).

================================================================================
                                        WARNINGS
                       Please study these warnings very carefully!
================================================================================

INFO   : Checking CIS options ...
  ===> : (D) CORRECTION FOUND - SETTING MODE=3
  ===> : JK MODE FOUND - ACTIVATING RI-MP2 CODE
  ===> : MP2 AND CIS FOUND - CHECKING
WARNING: CIS(D) and MP2 runs must have the same orbital window
  ===> : adjusting orbital windows

WARNING: No MP2 level density has been requested!
         To caclulate MP2 level properties use
         %mp2 Density relaxed end
         or
         %mp2 Density unrelaxed end
         Otherwise for double-hybrid DFT only the energy is correct!

WARNING: The frozen-core approximation is turned on by default for 
         the MP2 part of double-hybrid DFT.

WARNING: CIS/ROCIS methods need fully converged wavefunctions
  ===> : Setting SCFConvForced true
         You can overwrite this default with %scf ConvForced false 


INFO   : the flag for use of the SHARK integral package has been found!

================================================================================
                                       INPUT FILE
================================================================================
NAME = Ir_isoCN_5_SCS-PBE-QIDH_def2SVP.inp
|  1> %maxcore 12000
|  2> %pal
|  3>  nprocs 8
|  4> end
|  5> ! RI-SCS-PBE-QIDH def2-SVP def2/J def2-SVP/C RIJCOSX CPCM TIGHTSCF
|  6> 
|  7> %TDDFT 
|  8>     DCORR      4
|  9>     NROOTS    40
| 10>     doscs true
| 11>     TDA       FALSE
| 12> END
| 13> 
| 14> %CPCM
| 15>     SMD		TRUE
| 16>     SMDsolvent	"Acetonitrile"
| 17> END
| 18> 
| 19> * xyz 1 1
| 20> Ir                 -0.00454100    0.09341600   -0.03280600
| 21> S                   0.23436200   -3.22247800   -3.13821500
| 22> S                   0.11030600   -3.51117400    2.74490000
| 23> N                   1.72557100    0.01622900   -1.28168100
| 24> N                  -1.71173700   -0.29091200    1.19620800
| 25> N                   1.10410800    1.94004500    2.32414600
| 26> N                  -1.31047900    2.18672200   -2.06454100
| 27> C                   2.70862300    0.98967900   -1.36212600
| 28> C                   2.45549800    2.29931100   -0.89872300
| 29> H                   1.47400300    2.54681700   -0.49925200
| 30> C                   3.41629400    3.28795600   -1.00038700
| 31> H                   3.18715600    4.29797600   -0.65263500
| 32> C                   4.66896800    3.00232700   -1.56264100
| 33> H                   5.42979900    3.78153300   -1.63858900
| 34> C                   4.92922200    1.73153700   -2.04018600
| 35> H                   5.89741400    1.52457200   -2.49759500
| 36> C                   3.96702900    0.70353700   -1.96344800
| 37> C                   4.21005500   -0.63299300   -2.45624200
| 38> C                   5.47557700   -1.05516600   -2.91214000
| 39> H                   6.31359400   -0.35772200   -2.90760000
| 40> C                   5.68136100   -2.35131200   -3.34689200
| 41> H                   6.67231800   -2.65774300   -3.68867700
| 42> C                   4.62842200   -3.27799200   -3.32430100
| 43> H                   4.79804000   -4.31179000   -3.63099800
| 44> C                   3.37599700   -2.88730700   -2.89133300
| 45> H                   2.59299000   -3.64151600   -2.82728200
| 46> C                   3.13189300   -1.56159300   -2.46683200
| 47> C                   1.84885200   -1.14915600   -1.94673300
| 48> C                  -0.50526500   -1.39561600   -1.38836400
| 49> C                  -1.69414800   -2.10422700   -1.74543500
| 50> C                  -3.02900700   -1.88869200   -1.33836400
| 51> H                  -3.26486000   -1.06285600   -0.66475100
| 52> C                  -4.04223700   -2.70288100   -1.81769100
| 53> H                  -5.07237900   -2.53225300   -1.49542200
| 54> C                  -3.75980600   -3.74170300   -2.72344700
| 55> H                  -4.57022900   -4.37609200   -3.08974600
| 56> C                  -2.46424700   -3.96393700   -3.17430500
| 57> H                  -2.25171200   -4.75747100   -3.89393500
| 58> C                  -1.44242300   -3.14257700   -2.68770300
| 59> C                   0.60774500   -1.87701300   -2.05710900
| 60> C                  -2.78786800    0.56179100    1.38709600
| 61> C                  -2.66534400    1.94031300    1.10721800
| 62> H                  -1.71121300    2.33649600    0.76543400
| 63> C                  -3.72149800    2.80637600    1.32010000
| 64> H                  -3.59320300    3.87130800    1.11227800
| 65> C                  -4.94126900    2.32613600    1.81890800
| 66> H                  -5.77661300    3.00930400    1.98420300
| 67> C                  -5.07352100    0.98414700    2.12323500
| 68> H                  -6.01563000    0.62336300    2.53799700
| 69> C                  -4.01282200    0.07596100    1.92715800
| 70> C                  -4.12078500   -1.33117500    2.23840500
| 71> C                  -5.34071400   -1.93943100    2.59757500
| 72> H                  -6.24949700   -1.33973800    2.65433900
| 73> C                  -5.41144200   -3.29581400    2.85708100
| 74> H                  -6.36920500   -3.74693000    3.12531100
| 75> C                  -4.26397100   -4.09597100    2.75068500
| 76> H                  -4.32609600   -5.17277300    2.91872900
| 77> C                  -3.05392000   -3.52345700    2.40899200
| 78> H                  -2.19168100   -4.17547800    2.27372400
| 79> C                  -2.94986100   -2.13583100    2.16192200
| 80> C                  -1.71531600   -1.53189400    1.71985700
| 81> C                   0.64770800   -1.48320300    1.14983400
| 82> C                   1.90643700   -2.08463200    1.45983300
| 83> C                   3.20959200   -1.69176500    1.08463800
| 84> H                   3.35197100   -0.80109900    0.47019800
| 85> C                   4.30687300   -2.41504500    1.52295300
| 86> H                   5.31256900   -2.10608500    1.22776500
| 87> C                   4.14057700   -3.53682200    2.35558600
| 88> H                   5.01666400   -4.09570300    2.69251900
| 89> C                   2.87626600   -3.93814300    2.76995100
| 90> H                   2.75218700   -4.79740400    3.43233800
| 91> C                   1.76954900   -3.20950400    2.32326900
| 92> C                  -0.40582400   -2.13621100    1.76495400
| 93> C                   0.70006100    1.32809300    1.40618500
| 94> C                   1.59522800    2.65929000    3.38664600
| 95> C                   2.26678000    1.95956500    4.41199400
| 96> C                   2.75906300    2.71587100    5.47827200
| 97> H                   3.28426600    2.20481900    6.28881500
| 98> C                   2.58759600    4.09912400    5.51546200
| 99> H                   2.98321300    4.67030900    6.35844800
|100> C                   1.91437600    4.76050700    4.48911300
|101> H                   1.78070300    5.84434300    4.52807600
|102> C                   1.39759200    4.05636600    3.39895100
|103> C                   2.43007200    0.47926300    4.33414100
|104> H                   2.93723400    0.08524800    5.22257000
|105> H                   3.01817300    0.18594400    3.45014700
|106> H                   1.45810300   -0.03110700    4.24104300
|107> C                   0.64821400    4.72416700    2.29583500
|108> H                   0.66955900    5.81527400    2.39993800
|109> H                  -0.40766200    4.40967200    2.28602500
|110> H                   1.05696400    4.46640200    1.30711100
|111> C                  -0.83034600    1.45365400   -1.28196900
|112> C                  -1.88243700    3.09140800   -2.92555600
|113> C                  -1.71330500    4.46617900   -2.65426700
|114> C                  -2.30873000    5.36558300   -3.54172100
|115> H                  -2.19753400    6.43737700   -3.36016400
|116> C                  -3.03168400    4.91175700   -4.64437700
|117> H                  -3.48738800    5.63354500   -5.32615800
|118> C                  -3.17822800    3.54642600   -4.88636800
|119> H                  -3.74606800    3.19931600   -5.75304100
|120> C                  -2.60733900    2.60029200   -4.03165200
|121> C                  -0.91614800    4.91062800   -1.47455500
|122> H                  -1.27382000    4.44708600   -0.54231200
|123> H                  -0.95545000    5.99915700   -1.35106100
|124> H                   0.14213600    4.62239500   -1.57784100
|125> C                  -2.74805200    1.13215900   -4.25040900
|126> H                  -3.30132500    0.91627400   -5.17161300
|127> H                  -3.28105200    0.65139400   -3.41508000
|128> H                  -1.76752800    0.63462700   -4.31651100
|129> *
|130> 
|131>                          ****END OF INPUT****
================================================================================

                       ****************************
                       * Single Point Calculation *
                       ****************************

---------------------------------
CARTESIAN COORDINATES (ANGSTROEM)
---------------------------------
  Ir    -0.004541    0.093416   -0.032806
  S      0.234362   -3.222478   -3.138215
  S      0.110306   -3.511174    2.744900
  N      1.725571    0.016229   -1.281681
  N     -1.711737   -0.290912    1.196208
  N      1.104108    1.940045    2.324146
  N     -1.310479    2.186722   -2.064541
  C      2.708623    0.989679   -1.362126
  C      2.455498    2.299311   -0.898723
  H      1.474003    2.546817   -0.499252
  C      3.416294    3.287956   -1.000387
  H      3.187156    4.297976   -0.652635
  C      4.668968    3.002327   -1.562641
  H      5.429799    3.781533   -1.638589
  C      4.929222    1.731537   -2.040186
  H      5.897414    1.524572   -2.497595
  C      3.967029    0.703537   -1.963448
  C      4.210055   -0.632993   -2.456242
  C      5.475577   -1.055166   -2.912140
  H      6.313594   -0.357722   -2.907600
  C      5.681361   -2.351312   -3.346892
  H      6.672318   -2.657743   -3.688677
  C      4.628422   -3.277992   -3.324301
  H      4.798040   -4.311790   -3.630998
  C      3.375997   -2.887307   -2.891333
  H      2.592990   -3.641516   -2.827282
  C      3.131893   -1.561593   -2.466832
  C      1.848852   -1.149156   -1.946733
  C     -0.505265   -1.395616   -1.388364
  C     -1.694148   -2.104227   -1.745435
  C     -3.029007   -1.888692   -1.338364
  H     -3.264860   -1.062856   -0.664751
  C     -4.042237   -2.702881   -1.817691
  H     -5.072379   -2.532253   -1.495422
  C     -3.759806   -3.741703   -2.723447
  H     -4.570229   -4.376092   -3.089746
  C     -2.464247   -3.963937   -3.174305
  H     -2.251712   -4.757471   -3.893935
  C     -1.442423   -3.142577   -2.687703
  C      0.607745   -1.877013   -2.057109
  C     -2.787868    0.561791    1.387096
  C     -2.665344    1.940313    1.107218
  H     -1.711213    2.336496    0.765434
  C     -3.721498    2.806376    1.320100
  H     -3.593203    3.871308    1.112278
  C     -4.941269    2.326136    1.818908
  H     -5.776613    3.009304    1.984203
  C     -5.073521    0.984147    2.123235
  H     -6.015630    0.623363    2.537997
  C     -4.012822    0.075961    1.927158
  C     -4.120785   -1.331175    2.238405
  C     -5.340714   -1.939431    2.597575
  H     -6.249497   -1.339738    2.654339
  C     -5.411442   -3.295814    2.857081
  H     -6.369205   -3.746930    3.125311
  C     -4.263971   -4.095971    2.750685
  H     -4.326096   -5.172773    2.918729
  C     -3.053920   -3.523457    2.408992
  H     -2.191681   -4.175478    2.273724
  C     -2.949861   -2.135831    2.161922
  C     -1.715316   -1.531894    1.719857
  C      0.647708   -1.483203    1.149834
  C      1.906437   -2.084632    1.459833
  C      3.209592   -1.691765    1.084638
  H      3.351971   -0.801099    0.470198
  C      4.306873   -2.415045    1.522953
  H      5.312569   -2.106085    1.227765
  C      4.140577   -3.536822    2.355586
  H      5.016664   -4.095703    2.692519
  C      2.876266   -3.938143    2.769951
  H      2.752187   -4.797404    3.432338
  C      1.769549   -3.209504    2.323269
  C     -0.405824   -2.136211    1.764954
  C      0.700061    1.328093    1.406185
  C      1.595228    2.659290    3.386646
  C      2.266780    1.959565    4.411994
  C      2.759063    2.715871    5.478272
  H      3.284266    2.204819    6.288815
  C      2.587596    4.099124    5.515462
  H      2.983213    4.670309    6.358448
  C      1.914376    4.760507    4.489113
  H      1.780703    5.844343    4.528076
  C      1.397592    4.056366    3.398951
  C      2.430072    0.479263    4.334141
  H      2.937234    0.085248    5.222570
  H      3.018173    0.185944    3.450147
  H      1.458103   -0.031107    4.241043
  C      0.648214    4.724167    2.295835
  H      0.669559    5.815274    2.399938
  H     -0.407662    4.409672    2.286025
  H      1.056964    4.466402    1.307111
  C     -0.830346    1.453654   -1.281969
  C     -1.882437    3.091408   -2.925556
  C     -1.713305    4.466179   -2.654267
  C     -2.308730    5.365583   -3.541721
  H     -2.197534    6.437377   -3.360164
  C     -3.031684    4.911757   -4.644377
  H     -3.487388    5.633545   -5.326158
  C     -3.178228    3.546426   -4.886368
  H     -3.746068    3.199316   -5.753041
  C     -2.607339    2.600292   -4.031652
  C     -0.916148    4.910628   -1.474555
  H     -1.273820    4.447086   -0.542312
  H     -0.955450    5.999157   -1.351061
  H      0.142136    4.622395   -1.577841
  C     -2.748052    1.132159   -4.250409
  H     -3.301325    0.916274   -5.171613
  H     -3.281052    0.651394   -3.415080
  H     -1.767528    0.634627   -4.316511

----------------------------
CARTESIAN COORDINATES (A.U.)
----------------------------
  NO LB      ZA    FRAG     MASS         X           Y           Z
   0 Ir   17.0000*   0   192.220   -0.008581    0.176531   -0.061994
   1 S    16.0000    0    32.060    0.442880   -6.089601   -5.930367
   2 S    16.0000    0    32.060    0.208448   -6.635157    5.187109
   3 N     7.0000    0    14.007    3.260857    0.030668   -2.422026
   4 N     7.0000    0    14.007   -3.234714   -0.549744    2.260506
   5 N     7.0000    0    14.007    2.086462    3.666154    4.391999
   6 N     7.0000    0    14.007   -2.476446    4.132306   -3.901417
   7 C     6.0000    0    12.011    5.118556    1.870222   -2.574045
   8 C     6.0000    0    12.011    4.640219    4.345068   -1.698340
   9 H     1.0000    0     1.008    2.785462    4.812787   -0.943450
  10 C     6.0000    0    12.011    6.455860    6.213336   -1.890457
  11 H     1.0000    0     1.008    6.022852    8.121998   -1.233301
  12 C     6.0000    0    12.011    8.823071    5.673576   -2.952964
  13 H     1.0000    0     1.008   10.260833    7.146062   -3.096484
  14 C     6.0000    0    12.011    9.314880    3.272131   -3.855393
  15 H     1.0000    0     1.008   11.144497    2.881024   -4.719771
  16 C     6.0000    0    12.011    7.496598    1.329492   -3.710379
  17 C     6.0000    0    12.011    7.955851   -1.196183   -4.641625
  18 C     6.0000    0    12.011   10.347341   -1.993975   -5.503147
  19 H     1.0000    0     1.008   11.930964   -0.675997   -5.494568
  20 C     6.0000    0    12.011   10.736216   -4.443336   -6.324709
  21 H     1.0000    0     1.008   12.608854   -5.022406   -6.970589
  22 C     6.0000    0    12.011    8.746450   -6.194507   -6.282018
  23 H     1.0000    0     1.008    9.066982   -8.148102   -6.861592
  24 C     6.0000    0    12.011    6.379710   -5.456219   -5.463828
  25 H     1.0000    0     1.008    4.900041   -6.881468   -5.342789
  26 C     6.0000    0    12.011    5.918420   -2.950983   -4.661637
  27 C     6.0000    0    12.011    3.493824   -2.171590   -3.678792
  28 C     6.0000    0    12.011   -0.954812   -2.637332   -2.623628
  29 C     6.0000    0    12.011   -3.201476   -3.976413   -3.298394
  30 C     6.0000    0    12.011   -5.723994   -3.569111   -2.529141
  31 H     1.0000    0     1.008   -6.169691   -2.008507   -1.256197
  32 C     6.0000    0    12.011   -7.638721   -5.107705   -3.434938
  33 H     1.0000    0     1.008   -9.585407   -4.785265   -2.825938
  34 C     6.0000    0    12.011   -7.105004   -7.070794   -5.146569
  35 H     1.0000    0     1.008   -8.636481   -8.269615   -5.838774
  36 C     6.0000    0    12.011   -4.656752   -7.490755   -5.998567
  37 H     1.0000    0     1.008   -4.255119   -8.990317   -7.358471
  38 C     6.0000    0    12.011   -2.725784   -5.938610   -5.079023
  39 C     6.0000    0    12.011    1.148472   -3.547041   -3.887373
  40 C     6.0000    0    12.011   -5.268307    1.061631    2.621232
  41 C     6.0000    0    12.011   -5.036770    3.666660    2.092339
  42 H     1.0000    0     1.008   -3.233724    4.415338    1.446461
  43 C     6.0000    0    12.011   -7.032612    5.303282    2.494627
  44 H     1.0000    0     1.008   -6.790170    7.315712    2.101901
  45 C     6.0000    0    12.011   -9.337645    4.395760    3.437238
  46 H     1.0000    0     1.008  -10.916217    5.686760    3.749600
  47 C     6.0000    0    12.011   -9.587565    1.859768    4.012333
  48 H     1.0000    0     1.008  -11.367893    1.177985    4.796119
  49 C     6.0000    0    12.011   -7.583135    0.143545    3.641801
  50 C     6.0000    0    12.011   -7.787155   -2.515556    4.229972
  51 C     6.0000    0    12.011  -10.092487   -3.664993    4.908705
  52 H     1.0000    0     1.008  -11.809838   -2.531738    5.015974
  53 C     6.0000    0    12.011  -10.226143   -6.228186    5.399101
  54 H     1.0000    0     1.008  -12.036053   -7.080672    5.905982
  55 C     6.0000    0    12.011   -8.057737   -7.740263    5.198041
  56 H     1.0000    0     1.008   -8.175137   -9.775124    5.515598
  57 C     6.0000    0    12.011   -5.771072   -6.658369    4.552335
  58 H     1.0000    0     1.008   -4.141677   -7.890510    4.296716
  59 C     6.0000    0    12.011   -5.574429   -4.036136    4.085441
  60 C     6.0000    0    12.011   -3.241477   -2.894860    3.250059
  61 C     6.0000    0    12.011    1.223991   -2.802847    2.172871
  62 C     6.0000    0    12.011    3.602644   -3.939384    2.758685
  63 C     6.0000    0    12.011    6.065250   -3.196973    2.049669
  64 H     1.0000    0     1.008    6.334307   -1.513858    0.888545
  65 C     6.0000    0    12.011    8.138810   -4.563774    2.877964
  66 H     1.0000    0     1.008   10.039300   -3.979924    2.320140
  67 C     6.0000    0    12.011    7.824557   -6.683625    4.451412
  68 H     1.0000    0     1.008    9.480121   -7.739757    5.088124
  69 C     6.0000    0    12.011    5.435355   -7.442012    5.234449
  70 H     1.0000    0     1.008    5.200880   -9.065780    6.486179
  71 C     6.0000    0    12.011    3.343963   -6.065084    4.390342
  72 C     6.0000    0    12.011   -0.766896   -4.036854    3.335280
  73 C     6.0000    0    12.011    1.322924    2.509732    2.657305
  74 C     6.0000    0    12.011    3.014544    5.025330    6.399833
  75 C     6.0000    0    12.011    4.283593    3.703041    8.337460
  76 C     6.0000    0    12.011    5.213873    5.132252   10.352434
  77 H     1.0000    0     1.008    6.206363    4.166504   11.884138
  78 C     6.0000    0    12.011    4.889848    7.746222   10.422713
  79 H     1.0000    0     1.008    5.637456    8.825605   12.015725
  80 C     6.0000    0    12.011    3.617646    8.996054    8.483194
  81 H     1.0000    0     1.008    3.365041   11.044208    8.556824
  82 C     6.0000    0    12.011    2.641066    7.665421    6.423087
  83 C     6.0000    0    12.011    4.592171    0.905676    8.190340
  84 H     1.0000    0     1.008    5.550568    0.161095    9.869227
  85 H     1.0000    0     1.008    5.703520    0.351383    6.519833
  86 H     1.0000    0     1.008    2.755415   -0.058784    8.014410
  87 C     6.0000    0    12.011    1.224947    8.927382    4.338499
  88 H     1.0000    0     1.008    1.265283   10.989275    4.535226
  89 H     1.0000    0     1.008   -0.770370    8.333072    4.319961
  90 H     1.0000    0     1.008    1.997372    8.440277    2.470082
  91 C     6.0000    0    12.011   -1.569127    2.747008   -2.422570
  92 C     6.0000    0    12.011   -3.557290    5.841914   -5.528500
  93 C     6.0000    0    12.011   -3.237677    8.439855   -5.015838
  94 C     6.0000    0    12.011   -4.362867   10.139482   -6.692883
  95 H     1.0000    0     1.008   -4.152737   12.164880   -6.349790
  96 C     6.0000    0    12.011   -5.729052    9.281876   -8.776601
  97 H     1.0000    0     1.008   -6.590208   10.645857  -10.064980
  98 C     6.0000    0    12.011   -6.005981    6.701774   -9.233897
  99 H     1.0000    0     1.008   -7.079043    6.045831  -10.871672
 100 C     6.0000    0    12.011   -4.927157    4.913840   -7.618718
 101 C     6.0000    0    12.011   -1.731269    9.279742   -2.786505
 102 H     1.0000    0     1.008   -2.407171    8.403775   -1.024821
 103 H     1.0000    0     1.008   -1.805539   11.336764   -2.553135
 104 H     1.0000    0     1.008    0.268598    8.735061   -2.981687
 105 C     6.0000    0    12.011   -5.193066    2.139470   -8.032109
 106 H     1.0000    0     1.008   -6.238600    1.731507   -9.772932
 107 H     1.0000    0     1.008   -6.200290    1.230956   -6.453566
 108 H     1.0000    0     1.008   -3.340144    1.199271   -8.157024
* core charge reduced due to ECP

--------------------------------
INTERNAL COORDINATES (ANGSTROEM)
--------------------------------
 Ir     0   0   0     0.000000000000     0.00000000     0.00000000
 S      1   0   0     4.549262876547     0.00000000     0.00000000
 S      1   2   0     4.552132415028    80.67943898     0.00000000
 N      1   2   3     2.135166066407    62.08440598   116.10369798
 N      1   2   3     2.138387618323   107.65298462   303.71881948
 N      1   2   3     3.192861412455   155.12532293    69.08675678
 N      1   2   3     3.196146301361    93.72171181   203.01939660
 C      4   1   2     1.385809343030   125.68709478   170.68155505
 C      8   4   1     1.412073150180   120.34937974   341.70591582
 H      9   8   4     1.088195173166   119.54435933   358.52533583
 C      9   8   4     1.382347083238   120.96941449   181.47561253
 H     11   9   8     1.092509074080   119.47259738   178.75482889
 C     11   9   8     1.402464130177   120.30738390   359.65153717
 H     13  11   9     1.091693134402   120.33247596   180.30565108
 C     13  11   9     1.382276598818   119.59786080     1.29848869
 H     15  13  11     1.090620581765   119.11081257   178.54084025
 C     15  13  11     1.410137613814   121.52956241   359.30046169
 C     17  15  13     1.445067473861   122.74770713   179.88738489
 C     18  17  15     1.409829408410   122.56089894     7.42082033
 H     19  18  17     1.090284933870   119.80475255   359.49944892
 C     19  18  17     1.382516115449   121.06716351   178.40600003
 H     21  19  18     1.092113876771   119.77072755   180.45596921
 C     21  19  18     1.402828112565   120.16718657   359.17745156
 H     23  21  19     1.091591324873   120.29493911   182.34558589
 C     23  21  19     1.381544222555   119.91243656     1.27866952
 H     25  23  21     1.089051747316   118.31864443   183.63508139
 C     25  23  21     1.413260581638   121.06340061     0.00000000
 C      4   1   2     1.347447426021   113.20929526   345.88883444
 C      1   2   3     2.074964653329    16.99347965   271.71481312
 C     29   1   2     1.429360708866   136.02800334   170.37256902
 C     30  29   1     1.412094432093   129.68610712     7.83658094
 H     31  30  29     1.091506394976   119.84474981     1.30147255
 C     31  30  29     1.385385554115   120.12741707   179.74136468
 H     33  31  30     1.092778002574   119.71267449   179.78297595
 C     33  31  30     1.406880360578   120.65551219   359.31072984
 H     35  33  31     1.092432972613   119.71822514   179.84920191
 C     35  33  31     1.389652477924   120.93837543   359.02859120
 H     37  35  33     1.092123927163   120.75778620   181.32722735
 C     37  35  33     1.398405535952   118.32063690     1.05502322
 C     29   1   2     1.384830028102   111.77663182   355.14888340
 C      5   1   2     1.386217358106   126.04059564   238.31596840
 C     41   5   1     1.411972637817   120.39091279   340.21483073
 H     42  41   5     1.088183457559   119.59032297   358.34637874
 C     42  41   5     1.382333222349   120.98773327   181.39363406
 H     44  42  41     1.092579404589   119.44970059   178.87947997
 C     44  42  41     1.402598007593   120.31122156   359.89001484
 H     46  44  42     1.091714500950   120.33220984   180.19267395
 C     46  44  42     1.382403700282   119.59533785     1.32944483
 H     48  46  44     1.090762109344   119.17199465   178.23314450
 C     48  46  44     1.410081688813   121.51092717   359.13157446
 C     50  48  46     1.445185948892   122.74941338   179.87389588
 C     51  50  48     1.409682664814   122.65957549     8.42620084
 H     52  51  50     1.090293715947   119.81884566   359.61466281
 C     52  51  50     1.382794509936   121.01898325   178.41135822
 H     54  52  51     1.092136869868   119.74333332   180.52344451
 C     54  52  51     1.402947265333   120.22385759   359.24825563
 H     56  54  52     1.091604712689   120.29042403   182.29793173
 C     56  54  52     1.381575118857   119.91857797     1.16779222
 H     58  56  54     1.089442476401   118.41722354   183.67836999
 C     58  56  54     1.413286162197   120.97025021   359.96263462
 C      5   1   2     1.346943728879   113.02610856    53.25662629
 C      1   2   3     2.076004238619    79.56132492    17.10038808
 C     62   1   2     1.429060851568   136.04880748    83.73418780
 C     63  62   1     1.411852939133   129.66067302     5.07502070
 H     64  63  62     1.091372629672   119.80959339     0.38218339
 C     64  63  62     1.385380666310   120.11317083   178.75383004
 H     66  64  63     1.092710703416   119.72814370   179.92611302
 C     66  64  63     1.406881555083   120.65757736   359.30999993
 H     68  66  64     1.092428601886   119.71341053   180.02693883
 C     68  66  64     1.389690326291   120.94839846   359.30553643
 H     70  68  66     1.092008059554   120.76184224   181.22675699
 C     70  68  66     1.398306876023   118.31581842     0.87411721
 C     62   1   2     1.383734706325   111.86530544   265.79432008
 C      6   1   2     1.174900687732     4.12344539   109.23035467
 C      6   1   2     1.373833495888   176.22049092   301.55427955
 C     75   6  74     1.411359516719   118.19020975   267.21639799
 C     76  75   6     1.396885854681   116.98850195   179.82815188
 H     77  76  75     1.092699543682   118.84127939   180.00942543
 C     77  76  75     1.394336003336   120.94006195     0.00000000
 H     79  77  76     1.092424144328   119.65337156   180.14147024
 C     79  77  76     1.394290110017   120.68540278     0.25728964
 H     81  79  77     1.092742907181   120.21875068   179.74399926
 C     81  79  77     1.396901369740   120.92990423   359.89624774
 C     76  75   6     1.491314647577   120.41725447   359.87970856
 H     84  76  75     1.096251432159   111.41463927   182.19148203
 H     84  76  75     1.101519048405   111.38753292    61.62525802
 H     84  76  75     1.101757011080   111.56931879   303.07116837
 C     83  81  79     1.491439060753   122.50682361   178.74527434
 H     88  83  81     1.096269824944   111.44624455     6.74697467
 H     88  83  81     1.101761075960   111.11874653   246.65385616
 H     88  83  81     1.100497390229   111.90147433   127.96485889
 C      7   1   2     1.174876727788     2.48787124   182.29212890
 C      7   1   2     1.373659179922   179.29211888   137.80543334
 C     93   7  92     1.411452676283   118.10643463    31.72007438
 C     94  93   7     1.396793860223   116.99890762   180.23562136
 H     95  94  93     1.092735042497   118.85700949   179.95966609
 C     95  94  93     1.394442820172   120.92053372   359.81699942
 H     97  95  94     1.092460243909   119.65187358   180.10366384
 C     97  95  94     1.394332645956   120.69118429     0.05831876
 H     99  97  95     1.092725814937   120.21948393   180.02451955
 C     99  97  95     1.397005095529   120.93326988     0.07697559
 C     94  93   7     1.491547719382   120.41755049     0.92080570
 H    102  94  93     1.100853058495   111.75716599   306.28314566
 H    102  94  93     1.096216584020   111.45864694   185.16810620
 H    102  94  93     1.101685656048   111.17899643    64.93501873
 C    101  99  97     1.490996069447   122.58441309   179.60373821
 H    106 101  99     1.096053901672   111.40129458     2.71911156
 H    106 101  99     1.101362121859   111.35949726   242.21861230
 H    106 101  99     1.101514811523   111.68782730   123.65777957

---------------------------
INTERNAL COORDINATES (A.U.)
---------------------------
 Ir     0   0   0     0.000000000000     0.00000000     0.00000000
 S      1   0   0     8.596860947888     0.00000000     0.00000000
 S      1   2   0     8.602283589748    80.67943898     0.00000000
 N      1   2   3     4.034879115952    62.08440598   116.10369798
 N      1   2   3     4.040966966798   107.65298462   303.71881948
 N      1   2   3     6.033633653105   155.12532293    69.08675678
 N      1   2   3     6.039841193518    93.72171181   203.01939660
 C      4   1   2     2.618800132156   125.68709478   170.68155505
 C      8   4   1     2.668431534903   120.34937974   341.70591582
 H      9   8   4     2.056390857539   119.54435933   358.52533583
 C      9   8   4     2.612257409345   120.96941449   181.47561253
 H     11   9   8     2.064542948836   119.47259738   178.75482889
 C     11   9   8     2.650273118683   120.30738390   359.65153717
 H     13  11   9     2.063001046302   120.33247596   180.30565108
 C     13  11   9     2.612124213095   119.59786080     1.29848869
 H     15  13  11     2.060974215554   119.11081257   178.54084025
 C     15  13  11     2.664773901250   121.52956241   359.30046169
 C     17  15  13     2.730781770635   122.74770713   179.88738489
 C     18  17  15     2.664191477443   122.56089894     7.42082033
 H     19  18  17     2.060339932956   119.80475255   359.49944892
 C     19  18  17     2.612576833931   121.06716351   178.40600003
 H     21  19  18     2.063796134152   119.77072755   180.45596921
 C     21  19  18     2.650960945713   120.16718657   359.17745156
 H     23  21  19     2.062808654173   120.29493911   182.34558589
 C     23  21  19     2.610740222529   119.91243656     1.27866952
 H     25  23  21     2.058009548095   118.31864443   183.63508139
 C     25  23  21     2.670675455163   121.06340061     0.00000000
 C      4   1   2     2.546306615036   113.20929526   345.88883444
 C      1   2   3     3.921114932358    16.99347965   271.71481312
 C     29   1   2     2.701100286345   136.02800334   170.37256902
 C     30  29   1     2.668471751890   129.68610712     7.83658094
 H     31  30  29     2.062648159929   119.84474981     1.30147255
 C     31  30  29     2.617999287168   120.12741707   179.74136468
 H     33  31  30     2.065051150038   119.71267449   179.78297595
 C     33  31  30     2.658618584685   120.65551219   359.31072984
 H     35  33  31     2.064399137903   119.71822514   179.84920191
 C     35  33  31     2.626062604602   120.93837543   359.02859120
 H     37  35  33     2.063815126640   120.75778620   181.32722735
 C     37  35  33     2.642603487108   118.32063690     1.05502322
 C     29   1   2     2.616949495144   111.77663182   355.14888340
 C      5   1   2     2.619571168908   126.04059564   238.31596840
 C     41   5   1     2.668241594065   120.39091279   340.21483073
 H     42  41   5     2.056368718251   119.59032297   358.34637874
 C     42  41   5     2.612231216060   120.98773327   181.39363406
 H     44  42  41     2.064675854237   119.44970059   178.87947997
 C     44  42  41     2.650526110335   120.31122156   359.89001484
 H     46  44  42     2.063041423226   120.33220984   180.19267395
 C     46  44  42     2.612364400053   119.59533785     1.32944483
 H     48  46  44     2.061241663919   119.17199465   178.23314450
 C     48  46  44     2.664668218314   121.51092717   359.13157446
 C     50  48  46     2.731005655996   122.74941338   179.87389588
 C     51  50  48     2.663914172235   122.65957549     8.42620084
 H     52  51  50     2.060356528676   119.81884566   359.61466281
 C     52  51  50     2.613102923269   121.01898325   178.41135822
 H     54  52  51     2.063839584808   119.74333332   180.52344451
 C     54  52  51     2.651186111814   120.22385759   359.24825563
 H     56  54  52     2.062833953480   120.29042403   182.29793173
 C     56  54  52     2.610798608080   119.91857797     1.16779222
 H     58  56  54     2.058747919058   118.41722354   183.67836999
 C     58  56  54     2.670723795413   120.97025021   359.96263462
 C      5   1   2     2.545354765384   113.02610856    53.25662629
 C      1   2   3     3.923079463849    79.56132492    17.10038808
 C     62   1   2     2.700533638171   136.04880748    83.73418780
 C     63  62   1     2.668015396334   129.66067302     5.07502070
 H     64  63  62     2.062395380137   119.80959339     0.38218339
 C     64  63  62     2.617990050556   120.11317083   178.75383004
 H     66  64  63     2.064923973061   119.72814370   179.92611302
 C     66  64  63     2.658620841973   120.65757736   359.30999993
 H     68  66  64     2.064390878427   119.71341053   180.02693883
 C     68  66  64     2.626134127650   120.94839846   359.30553643
 H     70  68  66     2.063596168592   120.76184224   181.22675699
 C     70  68  66     2.642417046863   118.31581842     0.87411721
 C     62   1   2     2.614879636956   111.86530544   265.79432008
 C      6   1   2     2.220240534370     4.12344539   109.23035467
 C      6   1   2     2.596169060837   176.22049092   301.55427955
 C     75   6  74     2.667082963102   118.19020975   267.21639799
 C     76  75   6     2.639731705696   116.98850195   179.82815188
 H     77  76  75     2.064902884219   118.84127939   180.00942543
 C     77  76  75     2.634913184971   120.94006195     0.00000000
 H     79  77  76     2.064382454863   119.65337156   180.14147024
 C     79  77  76     2.634826459166   120.68540278     0.25728964
 H     81  79  77     2.064984829357   120.21875068   179.74399926
 C     81  79  77     2.639761024908   120.92990423   359.89624774
 C     76  75   6     2.818176263425   120.41725447   359.87970856
 H     84  76  75     2.071614980699   111.41463927   182.19148203
 H     84  76  75     2.081569332782   111.38753292    61.62525802
 H     84  76  75     2.082019017070   111.56931879   303.07116837
 C     83  81  79     2.818411370257   122.50682361   178.74527434
 H     88  83  81     2.071649738026   111.44624455     6.74697467
 H     88  83  81     2.082026698579   111.11874653   246.65385616
 H     88  83  81     2.079638678628   111.90147433   127.96485889
 C      7   1   2     2.220195256636     2.48787124   182.29212890
 C      7   1   2     2.595839651400   179.29211888   137.80543334
 C     93   7  92     2.667259009165   118.10643463    31.72007438
 C     94  93   7     2.639557861364   116.99890762   180.23562136
 H     95  94  93     2.064969967258   118.85700949   179.95966609
 C     95  94  93     2.635115039537   120.92053372   359.81699942
 H     97  95  94     2.064450673184   119.65187358   180.10366384
 C     97  95  94     2.634906840442   120.69118429     0.05831876
 H     99  97  95     2.064952529696   120.21948393   180.02451955
 C     99  97  95     2.639957038242   120.93326988     0.07697559
 C     94  93   7     2.818616705307   120.41755049     0.92080570
 H    102  94  93     2.080310794244   111.75716599   306.28314566
 H    102  94  93     2.071549127261   111.45864694   185.16810620
 H    102  94  93     2.081884175599   111.17899643    64.93501873
 C    101  99  97     2.817574238008   122.58441309   179.60373821
 H    106 101  99     2.071241702176   111.40129458     2.71911156
 H    106 101  99     2.081272784588   111.35949726   242.21861230
 H    106 101  99     2.081561326236   111.68782730   123.65777957

---------------------
BASIS SET INFORMATION
---------------------
There are 5 groups of distinct atoms

 Group   1 Type Ir  : 7s6p5d1f contracted to 6s3p2d1f pattern {211111/411/41/1}
 Group   2 Type S   : 10s7p1d contracted to 4s3p1d pattern {5311/511/1}
 Group   3 Type N   : 7s4p1d contracted to 3s2p1d pattern {511/31/1}
 Group   4 Type C   : 7s4p1d contracted to 3s2p1d pattern {511/31/1}
 Group   5 Type H   : 4s1p contracted to 2s1p pattern {31/1}

Atom   0Ir   basis set group =>   1
Atom   1S    basis set group =>   2
Atom   2S    basis set group =>   2
Atom   3N    basis set group =>   3
Atom   4N    basis set group =>   3
Atom   5N    basis set group =>   3
Atom   6N    basis set group =>   3
Atom   7C    basis set group =>   4
Atom   8C    basis set group =>   4
Atom   9H    basis set group =>   5
Atom  10C    basis set group =>   4
Atom  11H    basis set group =>   5
Atom  12C    basis set group =>   4
Atom  13H    basis set group =>   5
Atom  14C    basis set group =>   4
Atom  15H    basis set group =>   5
Atom  16C    basis set group =>   4
Atom  17C    basis set group =>   4
Atom  18C    basis set group =>   4
Atom  19H    basis set group =>   5
Atom  20C    basis set group =>   4
Atom  21H    basis set group =>   5
Atom  22C    basis set group =>   4
Atom  23H    basis set group =>   5
Atom  24C    basis set group =>   4
Atom  25H    basis set group =>   5
Atom  26C    basis set group =>   4
Atom  27C    basis set group =>   4
Atom  28C    basis set group =>   4
Atom  29C    basis set group =>   4
Atom  30C    basis set group =>   4
Atom  31H    basis set group =>   5
Atom  32C    basis set group =>   4
Atom  33H    basis set group =>   5
Atom  34C    basis set group =>   4
Atom  35H    basis set group =>   5
Atom  36C    basis set group =>   4
Atom  37H    basis set group =>   5
Atom  38C    basis set group =>   4
Atom  39C    basis set group =>   4
Atom  40C    basis set group =>   4
Atom  41C    basis set group =>   4
Atom  42H    basis set group =>   5
Atom  43C    basis set group =>   4
Atom  44H    basis set group =>   5
Atom  45C    basis set group =>   4
Atom  46H    basis set group =>   5
Atom  47C    basis set group =>   4
Atom  48H    basis set group =>   5
Atom  49C    basis set group =>   4
Atom  50C    basis set group =>   4
Atom  51C    basis set group =>   4
Atom  52H    basis set group =>   5
Atom  53C    basis set group =>   4
Atom  54H    basis set group =>   5
Atom  55C    basis set group =>   4
Atom  56H    basis set group =>   5
Atom  57C    basis set group =>   4
Atom  58H    basis set group =>   5
Atom  59C    basis set group =>   4
Atom  60C    basis set group =>   4
Atom  61C    basis set group =>   4
Atom  62C    basis set group =>   4
Atom  63C    basis set group =>   4
Atom  64H    basis set group =>   5
Atom  65C    basis set group =>   4
Atom  66H    basis set group =>   5
Atom  67C    basis set group =>   4
Atom  68H    basis set group =>   5
Atom  69C    basis set group =>   4
Atom  70H    basis set group =>   5
Atom  71C    basis set group =>   4
Atom  72C    basis set group =>   4
Atom  73C    basis set group =>   4
Atom  74C    basis set group =>   4
Atom  75C    basis set group =>   4
Atom  76C    basis set group =>   4
Atom  77H    basis set group =>   5
Atom  78C    basis set group =>   4
Atom  79H    basis set group =>   5
Atom  80C    basis set group =>   4
Atom  81H    basis set group =>   5
Atom  82C    basis set group =>   4
Atom  83C    basis set group =>   4
Atom  84H    basis set group =>   5
Atom  85H    basis set group =>   5
Atom  86H    basis set group =>   5
Atom  87C    basis set group =>   4
Atom  88H    basis set group =>   5
Atom  89H    basis set group =>   5
Atom  90H    basis set group =>   5
Atom  91C    basis set group =>   4
Atom  92C    basis set group =>   4
Atom  93C    basis set group =>   4
Atom  94C    basis set group =>   4
Atom  95H    basis set group =>   5
Atom  96C    basis set group =>   4
Atom  97H    basis set group =>   5
Atom  98C    basis set group =>   4
Atom  99H    basis set group =>   5
Atom 100C    basis set group =>   4
Atom 101C    basis set group =>   4
Atom 102H    basis set group =>   5
Atom 103H    basis set group =>   5
Atom 104H    basis set group =>   5
Atom 105C    basis set group =>   4
Atom 106H    basis set group =>   5
Atom 107H    basis set group =>   5
Atom 108H    basis set group =>   5
---------------------------------
AUXILIARY/J BASIS SET INFORMATION
---------------------------------
There are 5 groups of distinct atoms

 Group   1 Type Ir  : 11s5p5d3f3g contracted to 8s5p5d2f3g pattern {41111111/11111/11111/21/111}
 Group   2 Type S   : 14s5p5d2f1g contracted to 8s4p3d1f1g pattern {71111111/2111/311/2/1}
 Group   3 Type N   : 12s5p4d2f1g contracted to 6s4p3d1f1g pattern {711111/2111/211/2/1}
 Group   4 Type C   : 12s5p4d2f1g contracted to 6s4p3d1f1g pattern {711111/2111/211/2/1}
 Group   5 Type H   : 5s2p1d contracted to 3s1p1d pattern {311/2/1}

Atom   0Ir   basis set group =>   1
Atom   1S    basis set group =>   2
Atom   2S    basis set group =>   2
Atom   3N    basis set group =>   3
Atom   4N    basis set group =>   3
Atom   5N    basis set group =>   3
Atom   6N    basis set group =>   3
Atom   7C    basis set group =>   4
Atom   8C    basis set group =>   4
Atom   9H    basis set group =>   5
Atom  10C    basis set group =>   4
Atom  11H    basis set group =>   5
Atom  12C    basis set group =>   4
Atom  13H    basis set group =>   5
Atom  14C    basis set group =>   4
Atom  15H    basis set group =>   5
Atom  16C    basis set group =>   4
Atom  17C    basis set group =>   4
Atom  18C    basis set group =>   4
Atom  19H    basis set group =>   5
Atom  20C    basis set group =>   4
Atom  21H    basis set group =>   5
Atom  22C    basis set group =>   4
Atom  23H    basis set group =>   5
Atom  24C    basis set group =>   4
Atom  25H    basis set group =>   5
Atom  26C    basis set group =>   4
Atom  27C    basis set group =>   4
Atom  28C    basis set group =>   4
Atom  29C    basis set group =>   4
Atom  30C    basis set group =>   4
Atom  31H    basis set group =>   5
Atom  32C    basis set group =>   4
Atom  33H    basis set group =>   5
Atom  34C    basis set group =>   4
Atom  35H    basis set group =>   5
Atom  36C    basis set group =>   4
Atom  37H    basis set group =>   5
Atom  38C    basis set group =>   4
Atom  39C    basis set group =>   4
Atom  40C    basis set group =>   4
Atom  41C    basis set group =>   4
Atom  42H    basis set group =>   5
Atom  43C    basis set group =>   4
Atom  44H    basis set group =>   5
Atom  45C    basis set group =>   4
Atom  46H    basis set group =>   5
Atom  47C    basis set group =>   4
Atom  48H    basis set group =>   5
Atom  49C    basis set group =>   4
Atom  50C    basis set group =>   4
Atom  51C    basis set group =>   4
Atom  52H    basis set group =>   5
Atom  53C    basis set group =>   4
Atom  54H    basis set group =>   5
Atom  55C    basis set group =>   4
Atom  56H    basis set group =>   5
Atom  57C    basis set group =>   4
Atom  58H    basis set group =>   5
Atom  59C    basis set group =>   4
Atom  60C    basis set group =>   4
Atom  61C    basis set group =>   4
Atom  62C    basis set group =>   4
Atom  63C    basis set group =>   4
Atom  64H    basis set group =>   5
Atom  65C    basis set group =>   4
Atom  66H    basis set group =>   5
Atom  67C    basis set group =>   4
Atom  68H    basis set group =>   5
Atom  69C    basis set group =>   4
Atom  70H    basis set group =>   5
Atom  71C    basis set group =>   4
Atom  72C    basis set group =>   4
Atom  73C    basis set group =>   4
Atom  74C    basis set group =>   4
Atom  75C    basis set group =>   4
Atom  76C    basis set group =>   4
Atom  77H    basis set group =>   5
Atom  78C    basis set group =>   4
Atom  79H    basis set group =>   5
Atom  80C    basis set group =>   4
Atom  81H    basis set group =>   5
Atom  82C    basis set group =>   4
Atom  83C    basis set group =>   4
Atom  84H    basis set group =>   5
Atom  85H    basis set group =>   5
Atom  86H    basis set group =>   5
Atom  87C    basis set group =>   4
Atom  88H    basis set group =>   5
Atom  89H    basis set group =>   5
Atom  90H    basis set group =>   5
Atom  91C    basis set group =>   4
Atom  92C    basis set group =>   4
Atom  93C    basis set group =>   4
Atom  94C    basis set group =>   4
Atom  95H    basis set group =>   5
Atom  96C    basis set group =>   4
Atom  97H    basis set group =>   5
Atom  98C    basis set group =>   4
Atom  99H    basis set group =>   5
Atom 100C    basis set group =>   4
Atom 101C    basis set group =>   4
Atom 102H    basis set group =>   5
Atom 103H    basis set group =>   5
Atom 104H    basis set group =>   5
Atom 105C    basis set group =>   4
Atom 106H    basis set group =>   5
Atom 107H    basis set group =>   5
Atom 108H    basis set group =>   5
---------------------------------
AUXILIARY/C BASIS SET INFORMATION
---------------------------------
There are 5 groups of distinct atoms

 Group   1 Type Ir  : 8s8p7d5f3g1h contracted to 8s8p7d5f3g1h pattern {11111111/11111111/1111111/11111/111/1}
 Group   2 Type S   : 10s7p7d3f contracted to 8s5p5d2f pattern {31111111/31111/31111/12}
 Group   3 Type N   : 8s6p5d3f contracted to 6s5p4d1f pattern {311111/21111/2111/3}
 Group   4 Type C   : 8s6p5d3f contracted to 6s5p4d1f pattern {311111/21111/2111/3}
 Group   5 Type H   : 4s3p2d contracted to 3s2p1d pattern {211/21/2}

Atom   0Ir   basis set group =>   1
Atom   1S    basis set group =>   2
Atom   2S    basis set group =>   2
Atom   3N    basis set group =>   3
Atom   4N    basis set group =>   3
Atom   5N    basis set group =>   3
Atom   6N    basis set group =>   3
Atom   7C    basis set group =>   4
Atom   8C    basis set group =>   4
Atom   9H    basis set group =>   5
Atom  10C    basis set group =>   4
Atom  11H    basis set group =>   5
Atom  12C    basis set group =>   4
Atom  13H    basis set group =>   5
Atom  14C    basis set group =>   4
Atom  15H    basis set group =>   5
Atom  16C    basis set group =>   4
Atom  17C    basis set group =>   4
Atom  18C    basis set group =>   4
Atom  19H    basis set group =>   5
Atom  20C    basis set group =>   4
Atom  21H    basis set group =>   5
Atom  22C    basis set group =>   4
Atom  23H    basis set group =>   5
Atom  24C    basis set group =>   4
Atom  25H    basis set group =>   5
Atom  26C    basis set group =>   4
Atom  27C    basis set group =>   4
Atom  28C    basis set group =>   4
Atom  29C    basis set group =>   4
Atom  30C    basis set group =>   4
Atom  31H    basis set group =>   5
Atom  32C    basis set group =>   4
Atom  33H    basis set group =>   5
Atom  34C    basis set group =>   4
Atom  35H    basis set group =>   5
Atom  36C    basis set group =>   4
Atom  37H    basis set group =>   5
Atom  38C    basis set group =>   4
Atom  39C    basis set group =>   4
Atom  40C    basis set group =>   4
Atom  41C    basis set group =>   4
Atom  42H    basis set group =>   5
Atom  43C    basis set group =>   4
Atom  44H    basis set group =>   5
Atom  45C    basis set group =>   4
Atom  46H    basis set group =>   5
Atom  47C    basis set group =>   4
Atom  48H    basis set group =>   5
Atom  49C    basis set group =>   4
Atom  50C    basis set group =>   4
Atom  51C    basis set group =>   4
Atom  52H    basis set group =>   5
Atom  53C    basis set group =>   4
Atom  54H    basis set group =>   5
Atom  55C    basis set group =>   4
Atom  56H    basis set group =>   5
Atom  57C    basis set group =>   4
Atom  58H    basis set group =>   5
Atom  59C    basis set group =>   4
Atom  60C    basis set group =>   4
Atom  61C    basis set group =>   4
Atom  62C    basis set group =>   4
Atom  63C    basis set group =>   4
Atom  64H    basis set group =>   5
Atom  65C    basis set group =>   4
Atom  66H    basis set group =>   5
Atom  67C    basis set group =>   4
Atom  68H    basis set group =>   5
Atom  69C    basis set group =>   4
Atom  70H    basis set group =>   5
Atom  71C    basis set group =>   4
Atom  72C    basis set group =>   4
Atom  73C    basis set group =>   4
Atom  74C    basis set group =>   4
Atom  75C    basis set group =>   4
Atom  76C    basis set group =>   4
Atom  77H    basis set group =>   5
Atom  78C    basis set group =>   4
Atom  79H    basis set group =>   5
Atom  80C    basis set group =>   4
Atom  81H    basis set group =>   5
Atom  82C    basis set group =>   4
Atom  83C    basis set group =>   4
Atom  84H    basis set group =>   5
Atom  85H    basis set group =>   5
Atom  86H    basis set group =>   5
Atom  87C    basis set group =>   4
Atom  88H    basis set group =>   5
Atom  89H    basis set group =>   5
Atom  90H    basis set group =>   5
Atom  91C    basis set group =>   4
Atom  92C    basis set group =>   4
Atom  93C    basis set group =>   4
Atom  94C    basis set group =>   4
Atom  95H    basis set group =>   5
Atom  96C    basis set group =>   4
Atom  97H    basis set group =>   5
Atom  98C    basis set group =>   4
Atom  99H    basis set group =>   5
Atom 100C    basis set group =>   4
Atom 101C    basis set group =>   4
Atom 102H    basis set group =>   5
Atom 103H    basis set group =>   5
Atom 104H    basis set group =>   5
Atom 105C    basis set group =>   4
Atom 106H    basis set group =>   5
Atom 107H    basis set group =>   5
Atom 108H    basis set group =>   5
-------------------------
ECP PARAMETER INFORMATION
-------------------------

 Group 1, Type Ir ECP Def2-ECP (replacing 60 core electrons, lmax=3)

Atom   0Ir   ECP group =>   1



           ************************************************************
           *        Program running with 8 parallel MPI-processes     *
           *              working on a common directory               *
           ************************************************************
------------------------------------------------------------------------------
                           ORCA GTO INTEGRAL CALCULATION
                           -- RI-GTO INTEGRALS CHOSEN --
------------------------------------------------------------------------------
------------------------------------------------------------------------------
                   ___                                                        
                  /   \      - P O W E R E D   B Y -                         
                 /     \                                                     
                 |  |  |   _    _      __       _____    __    __             
                 |  |  |  | |  | |    /  \     |  _  \  |  |  /  |          
                  \  \/   | |  | |   /    \    | | | |  |  | /  /          
                 / \  \   | |__| |  /  /\  \   | |_| |  |  |/  /          
                |  |  |   |  __  | /  /__\  \  |    /   |      \           
                |  |  |   | |  | | |   __   |  |    \   |  |\   \          
                \     /   | |  | | |  |  |  |  | |\  \  |  | \   \       
                 \___/    |_|  |_| |__|  |__|  |_| \__\ |__|  \__/        
                                                                              
                      - O R C A' S   B I G   F R I E N D -                    
                                      &                                       
                       - I N T E G R A L  F E E D E R -                       
                                                                              
 v1 FN, 2020, v2 2021                                                         
------------------------------------------------------------------------------


Reading SHARK input file Ir_isoCN_5_SCS-PBE-QIDH_def2SVP.SHARKINP.tmp ... ok
----------------------
SHARK INTEGRAL PACKAGE
----------------------

Number of atoms                             ...    109
Number of basis functions                   ...   1174
Number of shells                            ...    538
Maximum angular momentum                    ...      3
Integral batch strategy                     ... SHARK/LIBINT Hybrid
RI-J (if used) integral strategy            ... SPLIT-RIJ (Revised 2003 algorithm where possible)
Printlevel                                  ...      1
Contraction scheme used                     ... SEGMENTED contraction
Coulomb Range Separation                    ... NOT USED
Exchange Range Separation                   ... NOT USED
Finite Nucleus Model                        ... NOT USED
Auxiliary Coulomb fitting basis             ... AVAILABLE
   # of basis functions in Aux-J            ...   3789
   # of shells in Aux-J                     ...   1227
   Maximum angular momentum in Aux-J        ...      4
Auxiliary J/K fitting basis                 ... NOT available
Auxiliary Correlation fitting basis         ... AVAILABLE
   # of basis functions in Aux-C            ...   3924
   # of shells in Aux-C                     ...   1348
   Maximum angular momentum in Aux-C        ...      5
Auxiliary 'external' fitting basis          ... NOT available
Integral threshold                          ...     2.500000e-11
Primitive cut-off                           ...     2.500000e-12
Primitive pair pre-selection threshold      ...     2.500000e-12

Calculating pre-screening integrals         ... done (  0.1 sec) Dimension = 538
Organizing shell pair data                  ... done (  0.3 sec)
Shell pair information
Total number of shell pairs                 ...    144991
Shell pairs after pre-screening             ...     73786
Total number of primitive shell pairs       ...    535078
Primitive shell pairs kept                  ...    150796
          la=0 lb=0:  22070 shell pairs
          la=1 lb=0:  27783 shell pairs
          la=1 lb=1:   8889 shell pairs
          la=2 lb=0:   8515 shell pairs
          la=2 lb=1:   5438 shell pairs
          la=2 lb=2:    717 shell pairs
          la=3 lb=0:    202 shell pairs
          la=3 lb=1:    129 shell pairs
          la=3 lb=2:     42 shell pairs
          la=3 lb=3:      1 shell pairs

Calculating one electron integrals          ... done (  0.1 sec)
Calculating ECP integrals                   ... done (  1.9 sec)
Calculating RI/J V-Matrix + Cholesky decomp.... done (  1.0 sec)
Calculating RI/C V-Matrix + Cholesky decomp.... done (  1.0 sec)
Calculating Nuclear repulsion               ... done (  0.0 sec) ENN=  11350.435216603333 Eh

SHARK setup successfully completed in   5.0 seconds

Maximum memory used throughout the entire GTOINT-calculation: 137.3 MB


           ************************************************************
           *        Program running with 8 parallel MPI-processes     *
           *              working on a common directory               *
           ************************************************************
-------------------------------------------------------------------------------
                                 ORCA SCF
-------------------------------------------------------------------------------

------------
SCF SETTINGS
------------
Hamiltonian:
 Density Functional     Method          .... DFT(GTOs)
 Exchange Functional    Exchange        .... PBE
   PBE kappa parameter   XKappa         ....  0.804000
   PBE mue parameter    XMuePBE         ....  0.219520
 Correlation Functional Correlation     .... PBE
   PBE beta parameter  CBetaPBE         ....  0.066725
 LDA part of GGA corr.  LDAOpt          .... PW91-LDA
 Gradients option       PostSCFGGA      .... off
 Hybrid DFT is turned on
   Fraction HF Exchange ScalHFX         ....  0.690000
   Scaling of DF-GGA-X  ScalDFX         ....  0.310000
   Scaling of DF-GGA-C  ScalDFC         ....  0.670000
   Scaling of DF-LDA-C  ScalLDAC        ....  0.670000
   Perturbative correction              ....  0.330000
   Density functional embedding theory  .... OFF
 RI-approximation to the Coulomb term is turned on
   Number of AuxJ basis functions       .... 3789
   RIJ-COSX (HFX calculated with COS-X)).... on


General Settings:
 Integral files         IntName         .... Ir_isoCN_5_SCS-PBE-QIDH_def2SVP
 Hartree-Fock type      HFTyp           .... RHF
 Total Charge           Charge          ....    1
 Multiplicity           Mult            ....    1
 Number of Electrons    NEL             ....  478
 Basis Dimension        Dim             .... 1174
 Nuclear Repulsion      ENuc            ....  11350.4352166033 Eh

Convergence Acceleration:
 DIIS                   CNVDIIS         .... on
   Start iteration      DIISMaxIt       ....    12
   Startup error        DIISStart       ....  0.200000
   # of expansion vecs  DIISMaxEq       ....     5
   Bias factor          DIISBfac        ....   1.050
   Max. coefficient     DIISMaxC        ....  10.000
 Trust-Rad. Augm. Hess. CNVTRAH         .... auto
   Auto Start mean grad. ratio tolernc. ....  1.125000
   Auto Start start iteration           ....    20
   Auto Start num. interpolation iter.  ....    10
   Max. Number of Micro iterations      ....    16
   Max. Number of Macro iterations      .... Maxiter - #DIIS iter
   Number of Davidson start vectors     ....     2
   Converg. threshold I  (grad. norm)   ....   1.000e-05
   Converg. threshold II (energy diff.) ....   1.000e-08
   Grad. Scal. Fac. for Micro threshold ....   0.100
   Minimum threshold for Micro iter.    ....   0.010
   NR start threshold (gradient norm)   ....   0.001
   Initial trust radius                 ....   0.400
   Minimum AH scaling param. (alpha)    ....   1.000
   Maximum AH scaling param. (alpha)    .... 1000.000
   Orbital update algorithm             .... Taylor
   White noise on init. David. guess    .... on
   Maximum white noise                  ....   0.010
   Quad. conv. algorithm                .... NR
 SOSCF                  CNVSOSCF        .... off
 Level Shifting         CNVShift        .... on
   Level shift para.    LevelShift      ....    0.2500
   Turn off err/grad.   ShiftErr        ....    0.0010
 Zerner damping         CNVZerner       .... off
 Static damping         CNVDamp         .... on
   Fraction old density DampFac         ....    0.7000
   Max. Damping (<1)    DampMax         ....    0.9800
   Min. Damping (>=0)   DampMin         ....    0.0000
   Turn off err/grad.   DampErr         ....    0.1000
 Fernandez-Rico         CNVRico         .... off

SCF Procedure:
 Maximum # iterations   MaxIter         ....   125
 SCF integral mode      SCFMode         .... Direct
   Integral package                     .... SHARK and LIBINT hybrid scheme
 Reset frequency        DirectResetFreq ....    20
 Integral Threshold     Thresh          ....  2.500e-11 Eh
 Primitive CutOff       TCut            ....  2.500e-12 Eh

Convergence Tolerance:
 Convergence Check Mode ConvCheckMode   .... Total+1el-Energy
 Convergence forced     ConvForced      .... 1
 Energy Change          TolE            ....  1.000e-08 Eh
 1-El. energy change                    ....  1.000e-05 Eh
 DIIS Error             TolErr          ....  5.000e-07


Diagonalization of the overlap matrix:
Smallest eigenvalue                        ... 2.044e-04
Time for diagonalization                   ...    0.199 sec
Threshold for overlap eigenvalues          ... 1.000e-08
Number of eigenvalues below threshold      ... 0
Time for construction of square roots      ...    0.165 sec
Total time needed                          ...    0.369 sec

Time for model grid setup =    1.365 sec

------------------------------
INITIAL GUESS: MODEL POTENTIAL
------------------------------
Loading Hartree-Fock densities                     ... done
  calling /project/ligandum/orca_504_openmpi411/orca Ir_isoCN_5_SCS-PBE-QIDH_def2SVP_atom77.inp > Ir_isoCN_5_SCS-PBE-QIDH_def2SVP_atom77.out in order to generate an atomic fitting density for atom 0 (Ir with ECP) on-the-fly... 
    atom 0 (Ir), assumed electronic state with S=4: 1s2 2s2 2p6 3s2 3p6 4s2 3d10 4p6 5s2 4d10 5p6 6s2 4f14 5d7           ... done
Calculating cut-offs                               ... done
Initializing the effective Hamiltonian             ... done
Setting up the integral package (SHARK)            ... done
Starting the Coulomb interaction                   ... done (   1.5 sec)
Reading the grid                                   ... done
Mapping shells                                     ... done
Starting the XC term evaluation                    ... done (   0.4 sec)
  promolecular density results
     # of electrons  =    538.983611488
     EX              =   -744.413623456
     EC              =     -7.916590011
     EX+EC           =   -752.330213467
Transforming the Hamiltonian                       ... done (   0.1 sec)
Diagonalizing the Hamiltonian                      ... done (   0.2 sec)
Back transforming the eigenvectors                 ... done (   0.0 sec)
Now organizing SCF variables                       ... done
                      ------------------
                      INITIAL GUESS DONE (   8.5 sec)
                      ------------------
-------------------
DFT GRID GENERATION
-------------------

General Integration Accuracy     IntAcc      ... 4.388
Radial Grid Type                 RadialGrid  ... OptM3 with GC (2021)
Angular Grid (max. ang.)         AngularGrid ... 4 (Lebedev-302)
Angular grid pruning method      GridPruning ... 4 (adaptive)
Weight generation scheme         WeightScheme... Becke
Basis function cutoff            BFCut       ... 1.0000e-11
Integration weight cutoff        WCut        ... 1.0000e-14
Angular grids for H and He will be reduced by one unit
Partially contracted basis set               ... off
Rotationally invariant grid construction     ... off

Total number of grid points                  ...   534013
Total number of batches                      ...     8403
Average number of points per batch           ...       63
Average number of grid points per atom       ...     4899
Time for grid setup =    5.212 sec

--------------------
COSX GRID GENERATION
--------------------

GRIDX 1
-------
General Integration Accuracy     IntAcc      ... 3.816
Radial Grid Type                 RadialGrid  ... OptM3 with GC (2021)
Angular Grid (max. ang.)         AngularGrid ... 1 (Lebedev-50)
Angular grid pruning method      GridPruning ... 4 (adaptive)
Weight generation scheme         WeightScheme... Becke
Basis function cutoff            BFCut       ... 1.0000e-11
Integration weight cutoff        WCut        ... 1.0000e-14
Angular grids for H and He will be reduced by one unit
Partially contracted basis set               ... on
Rotationally invariant grid construction     ... off

Total number of grid points                  ...    67080
Total number of batches                      ...     1091
Average number of points per batch           ...       61
Average number of grid points per atom       ...      615
UseSFitting                                  ... on

GRIDX 2
-------
General Integration Accuracy     IntAcc      ... 4.020
Radial Grid Type                 RadialGrid  ... OptM3 with GC (2021)
Angular Grid (max. ang.)         AngularGrid ... 2 (Lebedev-110)
Angular grid pruning method      GridPruning ... 4 (adaptive)
Weight generation scheme         WeightScheme... Becke
Basis function cutoff            BFCut       ... 1.0000e-11
Integration weight cutoff        WCut        ... 1.0000e-14
Angular grids for H and He will be reduced by one unit
Partially contracted basis set               ... on
Rotationally invariant grid construction     ... off

Total number of grid points                  ...   145409
Total number of batches                      ...     2328
Average number of points per batch           ...       62
Average number of grid points per atom       ...     1334
UseSFitting                                  ... on

GRIDX 3
-------
General Integration Accuracy     IntAcc      ... 4.338
Radial Grid Type                 RadialGrid  ... OptM3 with GC (2021)
Angular Grid (max. ang.)         AngularGrid ... 3 (Lebedev-194)
Angular grid pruning method      GridPruning ... 4 (adaptive)
Weight generation scheme         WeightScheme... Becke
Basis function cutoff            BFCut       ... 1.0000e-11
Integration weight cutoff        WCut        ... 1.0000e-14
Angular grids for H and He will be reduced by one unit
Partially contracted basis set               ... on
Rotationally invariant grid construction     ... off

Total number of grid points                  ...   315706
Total number of batches                      ...     4990
Average number of points per batch           ...       63
Average number of grid points per atom       ...     2896
UseSFitting                                  ... on

Time for X-Grid setup             =    5.787 sec


--------------------
CPCM SOLVATION MODEL
--------------------
CPCM parameters:
  Epsilon                                         ...      35.6880
  Refrac                                          ...       1.3442
  Rsolv                                           ...       1.3000
  Surface type                                    ... GAUSSIAN VDW
  Epsilon function type                           ...         CPCM
Solvent:                                     ... ACETONITRILE
SMD-CDS solvent descriptors:
  Soln                                       ...    1.3442
  Soln25                                     ...    1.3416
  Sola                                       ...    0.0700
  Solb                                       ...    0.3200
  Solg                                       ...   41.2500
  Solc                                       ...    0.0000
  Solh                                       ...    0.0000
Radii:
 Radius for Ir used is    3.8172 Bohr (=   2.0200 Ang.)
 Radius for S  used is    4.7054 Bohr (=   2.4900 Ang.)
 Radius for N  used is    3.5716 Bohr (=   1.8900 Ang.)
 Radius for C  used is    3.4960 Bohr (=   1.8500 Ang.)
 Radius for H  used is    2.2677 Bohr (=   1.2000 Ang.)
Calculating surface                               ...        done! (  0.0s)
GEPOL surface points                              ...         5956
GEPOL Volume                                      ...    6266.3787
GEPOL Surface-area                                ...    3104.9876
Calculating surface distance matrix               ...        done! (  0.2s)
Performing Cholesky decomposition & store         ...        done! (  1.8s)
Overall time for CPCM initialization              ...                 2.0s
--------------
SCF ITERATIONS
--------------
ITER       Energy         Delta-E        Max-DP      RMS-DP      [F,P]     Damp
               ***  Starting incremental Fock matrix formation  ***
  0  -3419.9210282614   0.000000000000 0.20483791  0.00123558  0.3929250 0.7000
  1  -3420.4305855474  -0.509557285997 0.17879708  0.00093515  0.2848842 0.7000
  2  -3420.7170281809  -0.286442633524 0.14418422  0.00063778  0.2044016 0.7000
                               ***Turning on DIIS***
  3  -3420.8949607525  -0.177932571607 0.10799692  0.00043840  0.1447861 0.7000
  4  -3421.0161084776  -0.121147725046 0.07807619  0.00030917  0.1016906 0.7000
  5  -3421.1011481233  -0.085039645719 0.18265877  0.00075376  0.0712249 0.0000
  6  -3421.3038184468  -0.202670323498 0.01068804  0.00006022  0.0048466 0.0000
  7  -3421.3048951523  -0.001076705558 0.00804662  0.00003376  0.0033226 0.0000
  8  -3421.3052876206  -0.000392468256 0.00335627  0.00002263  0.0015999 0.0000
  9  -3421.3054520635  -0.000164442935 0.00344062  0.00001299  0.0014640 0.0000
 10  -3421.3055104834  -0.000058419922 0.00156958  0.00001451  0.0005520 0.0000
               *** Restarting incremental Fock matrix formation ***
                                   *** Resetting DIIS ***
 11  -3421.3055283694  -0.000017885986 0.00162778  0.00002211  0.0002675 0.0000
 12  -3421.3055343033  -0.000005933816 0.00077892  0.00000342  0.0004682 0.0000
 13  -3421.3055356304  -0.000001327144 0.00030325  0.00000262  0.0002939 0.0000
 14  -3421.3055367342  -0.000001103784 0.00007660  0.00000100  0.0000501 0.0000
 15  -3421.3055368772  -0.000000142999 0.00005097  0.00000062  0.0000338 0.0000
 16  -3421.3055369428  -0.000000065662 0.00002007  0.00000025  0.0000147 0.0000
 17  -3421.3055369085   0.000000034386 0.00000907  0.00000010  0.0000054 0.0000
 18  -3421.3055369176  -0.000000009150 0.00000277  0.00000004  0.0000016 0.0000
 19  -3421.3055367541   0.000000163490 0.00000285  0.00000002  0.0000017 0.0000
 20  -3421.3055366975   0.000000056577 0.00000174  0.00000002  0.0000011 0.0000
                 **** Energy Check signals convergence ****

               *****************************************************
               *                     SUCCESS                       *
               *           SCF CONVERGED AFTER  21 CYCLES          *
               *****************************************************

Old exchange energy                            =   -283.878429350 Eh
New exchange energy                            =   -283.878938057 Eh
Exchange energy change after final integration =     -0.000508707 Eh
Total energy after final integration           =  -3421.306045401 Eh
Final COS-X integration done in                =    73.676 sec

SMD CDS free energy correction energy :               -13.25922     Kcal/mol
Total Energy after SMD CDS correction =             -3421.327175308 Eh

----------------
TOTAL SCF ENERGY
----------------

Total Energy       :        -3421.32717531 Eh          -93099.04550 eV

Components:
Nuclear Repulsion  :        11350.43521660 Eh          308861.04444 eV
[...]
   227a -> 241a  :     0.020309 
   228a -> 239a  :     0.035767 
   231a -> 240a  :     0.161333 
   232a -> 239a  :     0.019734 
   232a -> 242a  :     0.010408 
   233a -> 240a  :     0.012815 
   234a -> 240a  :     0.010181 
   235a -> 248a  :     0.022490 
   236a -> 247a  :     0.015383 
   237a -> 245a  :     0.049511 
   237a -> 247a  :     0.049301 
   238a -> 241a  :     0.021178 
   238a -> 248a  :     0.070471 
   238a -> 249a  :     0.013694 

STATE 37:  E=   0.179530 au      4.885 eV    39402.2 cm**-1 <S**2> =   0.000000
   217a -> 239a  :     0.044353 
   218a -> 240a  :     0.023124 
   219a -> 239a  :     0.019063 
   221a -> 240a  :     0.087816 
   223a -> 239a  :     0.050022 
   224a -> 240a  :     0.026908 
   225a -> 239a  :     0.034579 
   226a -> 240a  :     0.016384 
   228a -> 240a  :     0.048303 
   228a -> 241a  :     0.013958 
   232a -> 240a  :     0.012286 
   233a -> 239a  :     0.019381 
   234a -> 240a  :     0.141623 
   234a -> 246a  :     0.013861 
   235a -> 245a  :     0.015948 
   236a -> 246a  :     0.019368 
   237a -> 244a  :     0.012016 
   237a -> 249a  :     0.011719 
   238a -> 242a  :     0.012245 
   238a -> 245a  :     0.021365 

STATE 38:  E=   0.170953 au      4.652 eV    37519.8 cm**-1 <S**2> =   0.000000
   217a -> 240a  :     0.034425 
   219a -> 240a  :     0.022932 
   225a -> 240a  :     0.011154 
   226a -> 239a  :     0.028666 
   227a -> 241a  :     0.010956 
   228a -> 239a  :     0.085152 
   231a -> 240a  :     0.384731 
   232a -> 239a  :     0.058811 
   233a -> 240a  :     0.051583 
   233a -> 246a  :     0.012388 
   237a -> 243a  :     0.033400 
   237a -> 247a  :     0.012850 
   238a -> 248a  :     0.013403 
   238a -> 253a  :     0.016823 

STATE 39:  E=   0.173633 au      4.725 eV    38108.1 cm**-1 <S**2> =   0.000000
   218a -> 240a  :     0.010795 
   222a -> 240a  :     0.011313 
   224a -> 240a  :     0.012629 
   225a -> 239a  :     0.068821 
   227a -> 239a  :     0.196138 
   232a -> 240a  :     0.258064 
   233a -> 239a  :     0.052055 
   234a -> 240a  :     0.041881 
   235a -> 239a  :     0.023664 
   235a -> 242a  :     0.010060 
   236a -> 240a  :     0.017373 
   237a -> 241a  :     0.053976 
   238a -> 242a  :     0.061792 
   238a -> 243a  :     0.029072 

STATE 40:  E=   0.172987 au      4.707 eV    37966.2 cm**-1 <S**2> =   0.000000
   221a -> 239a  :     0.015542 
   225a -> 240a  :     0.026358 
   226a -> 239a  :     0.085226 
   227a -> 240a  :     0.103153 
   228a -> 239a  :     0.021650 
   231a -> 240a  :     0.021951 
   232a -> 239a  :     0.100795 
   233a -> 240a  :     0.150148 
   234a -> 239a  :     0.090039 
   235a -> 240a  :     0.017498 
   237a -> 242a  :     0.017197 
   238a -> 241a  :     0.027419 
   238a -> 244a  :     0.088509 
   238a -> 249a  :     0.012075 
   238a -> 253a  :     0.016358 


-------------------------
TD-DFT-EXCITATION SPECTRA
-------------------------

Center of mass = (  0.0027, -0.0505, -0.0074)
Calculating the Dipole integrals                  ... done
Transforming integrals                            ... done
Calculating the Linear Momentum integrals         ... done
Transforming integrals                            ... done
Calculating angular momentum integrals            ... done
Transforming integrals                            ... done

-----------------------------------------------------------------------------
         ABSORPTION SPECTRUM VIA TRANSITION ELECTRIC DIPOLE MOMENTS
-----------------------------------------------------------------------------
State   Energy    Wavelength  fosc         T2        TX        TY        TZ  
        (cm-1)      (nm)                 (au**2)    (au)      (au)      (au) 
-----------------------------------------------------------------------------
   1   23036.9    434.1   0.132238851   1.88977  -0.10515  -1.36967  -0.05229
   2   23510.2    425.3   0.638588535   8.94213   2.98456   0.09278  -0.16102
   3   25789.5    387.8   0.014206420   0.18135  -0.04584  -0.37824   0.19022
   4   26305.1    380.2   0.070148393   0.87792   0.05979  -0.92626  -0.12804
   5   28493.1    351.0   0.033152818   0.38305  -0.00714   0.61767   0.03853
   6   27979.1    357.4   0.025013760   0.29432   0.32414  -0.02632   0.43423
   7   28704.4    348.4   0.118843396   1.36302   0.38435   0.04544  -1.10147
   8   28744.9    347.9   0.135744861   1.55467  -0.04669   1.24476   0.05534
   9   32824.3    304.7   0.295573792   2.96446   1.70592   0.08273  -0.21782
  10   32883.7    304.1   0.016304514   0.16323  -0.05906  -0.39710  -0.04531
  11   38839.4    257.5   0.003152685   0.02672  -0.02894  -0.16051   0.01098
  12   38733.7    258.2   0.027064359   0.23003   0.42483   0.00784  -0.22245
  13   34665.0    288.5   0.653238460   6.20378   2.19340  -0.09884  -1.17601
  14   34785.3    287.5   0.253831581   2.40229   0.32883   1.51236  -0.08319
  15   32617.9    306.6   0.003560583   0.03594   0.07827   0.12922  -0.11452
  16   32685.5    305.9   0.008753867   0.08817  -0.18809   0.02373   0.22854
  17   39818.3    251.1   0.334598230   2.76641   0.88060  -0.47752   1.32776
  18   39385.6    253.9   0.211134634   1.76481  -0.58667  -0.44237  -1.10677
  19   37730.1    265.0   0.035544706   0.31014   0.13354   0.11020   0.52931
  20   39499.1    253.2   0.125088519   1.04257  -0.13826   1.00703  -0.09667
  21   37601.2    265.9   0.079326356   0.69453   0.04441   0.80721   0.20243
  22   37029.0    270.1   0.038250859   0.34007  -0.33564   0.14885  -0.45306
  23   38700.8    258.4   0.794473636   6.75827  -0.11495   2.59056   0.18456
  24   38092.3    262.5   0.048344140   0.41781  -0.53249  -0.00551  -0.36639
  25   39552.8    252.8   0.000371076   0.00309   0.00113  -0.03560  -0.04266
  26   36317.7    275.3   0.063762569   0.57799   0.00204  -0.05651   0.75815
  27   35216.6    284.0   0.021059853   0.19687   0.05452  -0.43861   0.03897
  28   37836.4    264.3   0.004381913   0.03813   0.16686  -0.05226  -0.08691
  29   37930.2    263.6   0.122503656   1.06326  -0.60864  -0.03278   0.83171
  30   36350.8    275.1   0.051078850   0.46260  -0.00730   0.67976   0.02160
  31   38102.0    262.5   0.149421382   1.29104   1.12415  -0.05152  -0.15710
  32   38554.3    259.4   0.090229484   0.77046   0.84793   0.16589   0.15479
  33   39281.7    254.6   0.061400836   0.51459  -0.06743  -0.71378  -0.02359
  34   39140.3    255.5   0.020420360   0.17176   0.10913   0.39879  -0.02850
  35   38984.9    256.5   0.005834617   0.04927  -0.15349   0.12413   0.10150
  36   38972.5    256.6   0.099178489   0.83779  -0.71843  -0.13082  -0.55185
  37   39402.2    253.8   0.036478396   0.30478  -0.27465   0.45956  -0.13473
  38   37519.8    266.5   0.026107666   0.22908  -0.45452  -0.06444  -0.13540
  39   38108.1    262.4   0.001328187   0.01147  -0.00324   0.10312  -0.02882
  40   37966.2    263.4   0.006248942   0.05419  -0.04452  -0.06384   0.21938

-----------------------------------------------------------------------------
         ABSORPTION SPECTRUM VIA TRANSITION VELOCITY DIPOLE MOMENTS
-----------------------------------------------------------------------------
State   Energy    Wavelength   fosc        P2         PX        PY        PZ  
        (cm-1)      (nm)                 (au**2)     (au)      (au)      (au) 
-----------------------------------------------------------------------------
   1   23036.9    434.1   0.160296803   0.02524   0.01248   0.15826   0.00602
   2   23510.2    425.3   0.799578580   0.12848  -0.35769  -0.01132   0.02008
   3   25789.5    387.8   0.022305672   0.00393   0.00521   0.05530  -0.02909
   4   26305.1    380.2   0.106679953   0.01918  -0.00822   0.13689   0.01931
   5   28493.1    351.0   0.049385365   0.00962   0.00125  -0.09787  -0.00610
   6   27979.1    357.4   0.036843049   0.00705  -0.04919   0.00436  -0.06787
   7   28704.4    348.4   0.170788802   0.03351  -0.06156  -0.00731   0.17223
   8   28744.9    347.9   0.196088078   0.03852   0.00732  -0.19595  -0.00859
   9   32824.3    304.7   0.337053448   0.07561  -0.27237  -0.01305   0.03550
  10   32883.7    304.1   0.022228949   0.00500   0.00909   0.06967   0.00772
  11   38839.4    257.5   0.002189765   0.00058   0.00495   0.02349  -0.00226
  12   38733.7    258.2   0.024116737   0.00638  -0.06833  -0.00132   0.04140
  13   34665.0    288.5   0.877696646   0.20794  -0.40360   0.01711   0.21155
  14   34785.3    287.5   0.328634167   0.07813  -0.06115  -0.27233   0.01505
  15   32617.9    306.6   0.005333089   0.00119  -0.01312  -0.02495   0.01986
  16   32685.5    305.9   0.011641588   0.00260   0.03225  -0.00515  -0.03916
  17   39818.3    251.1   0.349239203   0.09504  -0.16331   0.08852  -0.24604
  18   39385.6    253.9   0.224931714   0.06055   0.10846   0.08156   0.20526
  19   37730.1    265.0   0.044439735   0.01146  -0.03577  -0.02166  -0.09854
  20   39499.1    253.2   0.145829011   0.03937   0.02770  -0.19559   0.01853
  21   37601.2    265.9   0.089669157   0.02304  -0.00993  -0.14596  -0.04052
  22   37029.0    270.1   0.052952050   0.01340   0.06716  -0.02376   0.09124
  23   38700.8    258.4   0.945547449   0.25010   0.02230  -0.49836  -0.03514
  24   38092.3    262.5   0.056403556   0.01468   0.10026   0.00109   0.06805
  25   39552.8    252.8   0.000396006   0.00011  -0.00013   0.00644   0.00810
  26   36317.7    275.3   0.092409786   0.02294   0.00070   0.01125  -0.15103
  27   35216.6    284.0   0.031210437   0.00751  -0.01050   0.08569  -0.00763
  28   37836.4    264.3   0.005997355   0.00155  -0.03338   0.01173   0.01730
  29   37930.2    263.6   0.168163590   0.04359   0.12180   0.00663  -0.16945
  30   36350.8    275.1   0.076961504   0.01912   0.00034  -0.13820  -0.00464
  31   38102.0    262.5   0.204733947   0.05331  -0.22919   0.01118   0.02574
  32   38554.3    259.4   0.110033756   0.02899  -0.16359  -0.03309  -0.03373
  33   39281.7    254.6   0.083912485   0.02253   0.01434   0.14932   0.00502
  34   39140.3    255.5   0.027645022   0.00740  -0.02031  -0.08352   0.00265
  35   38984.9    256.5   0.006762649   0.00180   0.02943  -0.02631  -0.01560
  36   38972.5    256.6   0.142373228   0.03792   0.15667   0.02857   0.11208
  37   39402.2    253.8   0.051439139   0.01385   0.05947  -0.09788   0.02711
  38   37519.8    266.5   0.042079451   0.01079   0.09871   0.01350   0.02942
  39   38108.1    262.4   0.001903330   0.00050   0.00071  -0.02149   0.00578
  40   37966.2    263.4   0.008967132   0.00233   0.00623   0.01326  -0.04596

-------------------------------------------------------------------
                             CD SPECTRUM
-------------------------------------------------------------------
State  Energy     Wavelength     R         MX        MY        MZ   
       (cm-1)       (nm)     (1e40*cgs)   (au)      (au)      (au)  
-------------------------------------------------------------------
   1   23036.9    434.1    -673.37277  -0.09851   1.05142  -0.02749
   2   23510.2    425.3    595.67418   0.50154  -0.01578   1.44025
   3   25789.5    387.8      4.08435  -0.09951   0.00083   0.02321
   4   26305.1    380.2     -1.88822   0.03875   0.00512   0.01237
   5   28493.1    351.0      6.89487   0.01824   0.02281   0.01723
   6   27979.1    357.4    109.68158   0.19608  -0.01851   0.38827
   7   28704.4    348.4    -132.23499  -0.03242  -0.01884   0.24256
   8   28744.9    347.9    144.58178  -0.00167   0.24599   0.00710
   9   32824.3    304.7    -120.32508  -0.19296  -0.00566  -0.34163
  10   32883.7    304.1     14.30162   0.01426  -0.07966   0.01010
  11   38839.4    257.5    -39.48133  -0.04528   0.53019   0.00440
  12   38733.7    258.2     17.89959   0.32309   0.02711   0.44731
  13   34665.0    288.5    -119.98307  -0.63691  -0.01348  -0.97038
  14   34785.3    287.5    188.42028  -0.12298   0.28191  -0.16524
  15   32617.9    306.6     -7.82119   0.10460  -0.16381   0.03152
  16   32685.5    305.9      5.07111  -0.15796  -0.08104  -0.07453
  17   39818.3    251.1    -71.86278  -0.04500   0.20281  -0.01202
  18   39385.6    253.9    -132.38780  -0.01050   0.27663   0.14872
  19   37730.1    265.0    384.36833   0.75762  -0.07922   1.36564
  20   39499.1    253.2    -91.62637  -0.22260  -0.22328   0.00283
  21   37601.2    265.9      7.63668   0.62447   0.09026  -0.41689
  22   37029.0    270.1      9.24675  -1.09747  -0.02471   0.76163
  23   38700.8    258.4    -151.22365  -0.05678  -0.12838   0.02863
  24   38092.3    262.5     83.51396  -0.09573   0.03362  -0.34486
  25   39552.8    252.8      0.95370   0.00679  -0.03679  -0.01653
  26   36317.7    275.3    265.12188   0.68293  -0.01546   0.73875
  27   35216.6    284.0    -31.30783   0.05564   0.16722   0.10023
  28   37836.4    264.3      1.85259   0.00640   0.00210  -0.03419
  29   37930.2    263.6     17.70768   0.03200  -0.01403   0.06802
  30   36350.8    275.1    -54.54154   0.06716  -0.16889  -0.01810
  31   38102.0    262.5     44.70625   0.07030   0.02467  -0.10867
  32   38554.3    259.4    -46.06539  -0.14816  -0.05646   0.24087
  33   39281.7    254.6     -1.48266  -0.01654   0.00493   0.03148
  34   39140.3    255.5     -8.87564   0.05979  -0.06964  -0.08492
  35   38984.9    256.5     13.86588  -0.13744  -0.07563   0.17440
  36   38972.5    256.6    -64.85427   0.11636   0.04878   0.08623
  37   39402.2    253.8    -38.70494   0.05446  -0.13516   0.03728
  38   37519.8    266.5     42.96484  -0.22846  -0.00646   0.09694
  39   38108.1    262.4     -9.71193   0.03569  -0.19149   0.02562
  40   37966.2    263.4    -23.21292  -0.22281   0.01132  -0.26635

-------------------------------------------------------------------
         CD SPECTRUM VIA TRANSITION VELOCITY DIPOLE MOMENTS        
-------------------------------------------------------------------
State  Energy     Wavelength     R         MX        MY        MZ   
       (cm-1)       (nm)     (1e40*cgs)   (au)      (au)      (au)  
-------------------------------------------------------------------
   1   23036.9    434.1    -741.11826  -0.09851   1.05142  -0.02749
   2   23510.2    425.3    661.51351   0.50154  -0.01578   1.44025
   3   25789.5    387.8      4.60695  -0.09951   0.00083   0.02321
   4   26305.1    380.2     -2.44187   0.03875   0.00512   0.01237
   5   28493.1    351.0      8.40671   0.01824   0.02281   0.01723
   6   27979.1    357.4    133.42613   0.19608  -0.01851   0.38827
   7   28704.4    348.4    -158.27863  -0.03242  -0.01884   0.24256
   8   28744.9    347.9    173.77349  -0.00167   0.24599   0.00710
   9   32824.3    304.7    -127.67073  -0.19296  -0.00566  -0.34163
  10   32883.7    304.1     16.81105   0.01426  -0.07966   0.01010
  11   38839.4    257.5    -32.55308  -0.04528   0.53019   0.00440
  12   38733.7    258.2      9.59996   0.32309   0.02711   0.44731
  13   34665.0    288.5    -153.83913  -0.63691  -0.01348  -0.97038
  14   34785.3    287.5    213.39600  -0.12298   0.28191  -0.16524
  15   32617.9    306.6    -10.59654   0.10460  -0.16381   0.03152
  16   32685.5    305.9      5.56778  -0.15796  -0.08104  -0.07453
  17   39818.3    251.1    -73.43310  -0.04500   0.20281  -0.01202
  18   39385.6    253.9    -136.47863  -0.01050   0.27663   0.14872
  19   37730.1    265.0    438.67969   0.75762  -0.07922   1.36564
  20   39499.1    253.2    -98.39108  -0.22260  -0.22328   0.00283
  21   37601.2    265.9      6.82626   0.62447   0.09026  -0.41689
  22   37029.0    270.1     10.13899  -1.09747  -0.02471   0.76163
  23   38700.8    258.4    -164.98136  -0.05678  -0.12838   0.02863
  24   38092.3    262.5     89.71720  -0.09573   0.03362  -0.34486
  25   39552.8    252.8      0.97237   0.00679  -0.03679  -0.01653
  26   36317.7    275.3    317.02170   0.68293  -0.01546   0.73875
  27   35216.6    284.0    -38.14213   0.05564   0.16722   0.10023
  28   37836.4    264.3      2.13410   0.00640   0.00210  -0.03419
  29   37930.2    263.6     21.06610   0.03200  -0.01403   0.06802
  30   36350.8    275.1    -66.74196   0.06716  -0.16889  -0.01810
  31   38102.0    262.5     50.59913   0.07030   0.02467  -0.10867
  32   38554.3    259.4    -48.25627  -0.14816  -0.05646   0.24087
  33   39281.7    254.6     -1.73056  -0.01654   0.00493   0.03148
  34   39140.3    255.5    -11.57062   0.05979  -0.06964  -0.08492
  35   38984.9    256.5     12.67812  -0.13744  -0.07563   0.17440
  36   38972.5    256.6    -77.75848   0.11636   0.04878   0.08623
  37   39402.2    253.8    -45.90207   0.05446  -0.13516   0.03728
  38   37519.8    266.5     54.56708  -0.22846  -0.00646   0.09694
  39   38108.1    262.4    -11.64479   0.03569  -0.19149   0.02562
  40   37966.2    263.4    -29.98692  -0.22281   0.01132  -0.26635

Total run time:    38544.725 sec

           *** ORCA-CIS/TD-DFT FINISHED WITHOUT ERROR ***

Maximum memory used throughout the entire CIS-calculation: 7737.7 MB

-----------------------
CIS/TD-DFT TOTAL ENERGY
-----------------------

    E(SCF)  =  -3421.327175308 Eh
    DE(CIS) =      0.104964012 Eh (Root  1)
    ----------------------------- ---------
    E(tot)  =  -3421.222211296 Eh


-------------------------   --------------------
FINAL SINGLE POINT ENERGY     -3421.222211296103
-------------------------   --------------------


                            ***************************************
                            *     ORCA property calculations      *
                            ***************************************


  WARNING: The energy has been calculated at the MP2 level but the densities
           used in the property calculations are still SCF densities
           MP2 response densities have not been calculated 
           use %mp2 Density relaxed end
           or  %mp2 Density unrelaxed end

                                    ---------------------
                                    Active property flags
                                    ---------------------
   (+) Dipole Moment


------------------------------------------------------------------------------
                       ORCA ELECTRIC PROPERTIES CALCULATION
------------------------------------------------------------------------------

Dipole Moment Calculation                       ... on
Quadrupole Moment Calculation                   ... off
Polarizability Calculation                      ... off
GBWName                                         ... Ir_isoCN_5_SCS-PBE-QIDH_def2SVP.gbw
Electron density                                ... Ir_isoCN_5_SCS-PBE-QIDH_def2SVP.scfp
The origin for moment calculation is the CENTER OF MASS  = ( 0.002652, -0.050476 -0.007417)

-------------
DIPOLE MOMENT
-------------
                                X             Y             Z
Electronic contribution:      0.60296     -10.60799      -7.01442
Nuclear contribution   :     -0.75574      13.58611       7.27239
                        -----------------------------------------
Total Dipole Moment    :     -0.15278       2.97812       0.25796
                        -----------------------------------------
Magnitude (a.u.)       :      2.99317
Magnitude (Debye)      :      7.60804



--------------------
Rotational spectrum 
--------------------
 
Rotational constants in cm-1:     0.001222     0.001139     0.001103 
Rotational constants in MHz :    36.645732    34.144706    33.054055 

 Dipole components along the rotational axes: 
x,y,z [a.u.] :    -0.152953    -2.975247     0.289134 
x,y,z [Debye]:    -0.388777    -7.562477     0.734920 

 

Timings for individual modules:

Sum of individual times         ...    39880.341 sec (= 664.672 min)
GTO integral calculation        ...        7.104 sec (=   0.118 min)   0.0 %
SCF iterations                  ...      698.485 sec (=  11.641 min)   1.8 %
MP2 module                      ...      626.524 sec (=  10.442 min)   1.6 %
CIS module                      ...    38548.228 sec (= 642.470 min)  96.7 %
                             ****ORCA TERMINATED NORMALLY****
TOTAL RUN TIME: 0 days 11 hours 4 minutes 46 seconds 325 msec
