
                                 *****************
                                 * O   R   C   A *
                                 *****************

                                            #,                                       
                                            ###                                      
                                            ####                                     
                                            #####                                    
                                            ######                                   
                                           ########,                                 
                                     ,,################,,,,,                         
                               ,,#################################,,                 
                          ,,##########################################,,             
                       ,#########################################, ''#####,          
                    ,#############################################,,   '####,        
                  ,##################################################,,,,####,       
                ,###########''''           ''''###############################       
              ,#####''   ,,,,##########,,,,          '''####'''          '####       
            ,##' ,,,,###########################,,,                        '##       
           ' ,,###''''                  '''############,,,                           
         ,,##''                                '''############,,,,        ,,,,,,###''
      ,#''                                            '''#######################'''  
     '                                                          ''''####''''         
             ,#######,   #######,   ,#######,      ##                                
            ,#'     '#,  ##    ##  ,#'     '#,    #''#        ######   ,####,        
            ##       ##  ##   ,#'  ##            #'  '#       #        #'  '#        
            ##       ##  #######   ##           ,######,      #####,   #    #        
            '#,     ,#'  ##    ##  '#,     ,#' ,#      #,         ##   #,  ,#        
             '#######'   ##     ##  '#######'  #'      '#     #####' # '####'        



                  #######################################################
                  #                        -***-                        #
                  #          Department of theory and spectroscopy      #
                  #    Directorship and core code : Frank Neese         #
                  #        Max Planck Institute fuer Kohlenforschung    #
                  #                Kaiser Wilhelm Platz 1               #
                  #                 D-45470 Muelheim/Ruhr               #
                  #                      Germany                        #
                  #                                                     #
                  #                  All rights reserved                #
                  #                        -***-                        #
                  #######################################################


                         Program Version 5.0.4 -  RELEASE  -


 With contributions from (in alphabetic order):
   Daniel Aravena         : Magnetic Suceptibility
   Michael Atanasov       : Ab Initio Ligand Field Theory (pilot matlab implementation)
   Alexander A. Auer      : GIAO ZORA, VPT2 properties, NMR spectrum
   Ute Becker             : Parallelization
   Giovanni Bistoni       : ED, misc. LED, open-shell LED, HFLD
   Martin Brehm           : Molecular dynamics
   Dmytro Bykov           : SCF Hessian
   Vijay G. Chilkuri      : MRCI spin determinant printing, contributions to CSF-ICE
   Dipayan Datta          : RHF DLPNO-CCSD density
   Achintya Kumar Dutta   : EOM-CC, STEOM-CC
   Dmitry Ganyushin       : Spin-Orbit,Spin-Spin,Magnetic field MRCI
   Miquel Garcia          : C-PCM and meta-GGA Hessian, CC/C-PCM, Gaussian charge scheme
   Yang Guo               : DLPNO-NEVPT2, F12-NEVPT2, CIM, IAO-localization
   Andreas Hansen         : Spin unrestricted coupled pair/coupled cluster methods
   Benjamin Helmich-Paris : MC-RPA, TRAH-SCF, COSX integrals
   Lee Huntington         : MR-EOM, pCC
   Robert Izsak           : Overlap fitted RIJCOSX, COSX-SCS-MP3, EOM
   Marcus Kettner         : VPT2
   Christian Kollmar      : KDIIS, OOCD, Brueckner-CCSD(T), CCSD density, CASPT2, CASPT2-K
   Simone Kossmann        : Meta GGA functionals, TD-DFT gradient, OOMP2, MP2 Hessian
   Martin Krupicka        : Initial AUTO-CI
   Lucas Lang             : DCDCAS
   Marvin Lechner         : AUTO-CI (C++ implementation), FIC-MRCC
   Dagmar Lenk            : GEPOL surface, SMD
   Dimitrios Liakos       : Extrapolation schemes; Compound Job, initial MDCI parallelization
   Dimitrios Manganas     : Further ROCIS development; embedding schemes
   Dimitrios Pantazis     : SARC Basis sets
   Anastasios Papadopoulos: AUTO-CI, single reference methods and gradients
   Taras Petrenko         : DFT Hessian,TD-DFT gradient, ASA, ECA, R-Raman, ABS, FL, XAS/XES, NRVS
   Peter Pinski           : DLPNO-MP2, DLPNO-MP2 Gradient
   Christoph Reimann      : Effective Core Potentials
   Marius Retegan         : Local ZFS, SOC
   Christoph Riplinger    : Optimizer, TS searches, QM/MM, DLPNO-CCSD(T), (RO)-DLPNO pert. Triples
   Tobias Risthaus        : Range-separated hybrids, TD-DFT gradient, RPA, STAB
   Michael Roemelt        : Original ROCIS implementation
   Masaaki Saitow         : Open-shell DLPNO-CCSD energy and density
   Barbara Sandhoefer     : DKH picture change effects
   Avijit Sen             : IP-ROCIS
   Kantharuban Sivalingam : CASSCF convergence, NEVPT2, FIC-MRCI
   Bernardo de Souza      : ESD, SOC TD-DFT
   Georgi Stoychev        : AutoAux, RI-MP2 NMR, DLPNO-MP2 response
   Willem Van den Heuvel  : Paramagnetic NMR
   Boris Wezisla          : Elementary symmetry handling
   Frank Wennmohs         : Technical directorship


 We gratefully acknowledge several colleagues who have allowed us to
 interface, adapt or use parts of their codes:
   Stefan Grimme, W. Hujo, H. Kruse, P. Pracht,  : VdW corrections, initial TS optimization,
                  C. Bannwarth, S. Ehlert          DFT functionals, gCP, sTDA/sTD-DF
   Ed Valeev, F. Pavosevic, A. Kumar             : LibInt (2-el integral package), F12 methods
   Garnet Chan, S. Sharma, J. Yang, R. Olivares  : DMRG
   Ulf Ekstrom                                   : XCFun DFT Library
   Mihaly Kallay                                 : mrcc  (arbitrary order and MRCC methods)
   Jiri Pittner, Ondrej Demel                    : Mk-CCSD
   Frank Weinhold                                : gennbo (NPA and NBO analysis)
   Christopher J. Cramer and Donald G. Truhlar   : smd solvation model
   Lars Goerigk                                  : TD-DFT with DH, B97 family of functionals
   V. Asgeirsson, H. Jonsson                     : NEB implementation
   FAccTs GmbH                                   : IRC, NEB, NEB-TS, DLPNO-Multilevel, CI-OPT
                                                   MM, QMMM, 2- and 3-layer-ONIOM, Crystal-QMMM,
                                                   LR-CPCM, SF, NACMEs, symmetry and pop. for TD-DFT,
                                                   nearIR, NL-DFT gradient (VV10), updates on ESD,
                                                   ML-optimized integration grids
   S Lehtola, MJT Oliveira, MAL Marques          : LibXC Library
   Liviu Ungur et al                             : ANISO software


 Your calculation uses the libint2 library for the computation of 2-el integrals
 For citations please refer to: http://libint.valeyev.net

 Your ORCA version has been built with support for libXC version: 5.1.0
 For citations please refer to: https://tddft.org/programs/libxc/

 This ORCA versions uses:
   CBLAS   interface :  Fast vector & matrix operations
   LAPACKE interface :  Fast linear algebra routines
   SCALAPACK package :  Parallel linear algebra routines
   Shared memory     :  Shared parallel matrices
   BLAS/LAPACK       :  OpenBLAS 0.3.15  USE64BITINT DYNAMIC_ARCH NO_AFFINITY Zen SINGLE_THREADED
        Core in use  :  Zen
   Copyright (c) 2011-2014, The OpenBLAS Project


Your calculation utilizes the SMD solvation module
Please cite in your paper:
A.V. Marenich, C.J. Cramer, D.G. Truhlar J. Phys. Chem. B, 113, (2009), 6378 

================================================================================

cite the ECPs for Ir [Def2-ECP] as follows:
Ce-Yb(ecp-28): M. Dolg, H. Stoll, H.Preuss, J. Chem. Phys., 1989, 90, 1730-1734.
Y-Cd(ecp-28), Hf-Hg(ecp-46): D. Andrae,U. Haeussermann, M. Dolg, H. Stoll, H. Preuss, Theor. Chim. Acta, 1990, 77, 123-141.
In-Sb(ecp-28), Tl-Bi(ecp-46): B. Metz, H. Stoll, M. Dolg, J. Chem. Phys., 2000, 113, 2563-2569.
Te-Xe(ecp-28), Po-Rn(ecp-46): K. A. Peterson, D. Figgen, E. Goll, H. Stoll, M. Dolg, J. Chem. Phys., 2003, 119, 11113-11123.
Rb(ecp-28), Cs(ecp-46): T. Leininger, A. Nicklass, W. Kuechle, H. Stoll, M. Dolg, A. Bergner, Chem. Phys. Lett., 1996, 255, 274-280.
Sr(ecp-28), Ba(ecp-46): M. Kaupp, P. V. Schleyer, H. Stoll and H. Preuss, J. Chem. Phys., 1991, 94, 1360-1366.
La(ecp-46): M. Dolg, H. Stoll, A. Savin, H. Preuss, Theor. Chim. Acta, 1989, 75, 173-194.
Lu(ecp-28): X. Cao, M. Dolg, J. Chem. Phys., 2001, 115, 7348-7355.

ECP parameters for Ir [Def2-ECP] have been obtained from:
TURBOMOLE (7.0.2)

----- Orbital basis set information -----
Your calculation utilizes the basis: def2-SVP
   F. Weigend and R. Ahlrichs, Phys. Chem. Chem. Phys. 7, 3297 (2005).

----- AuxJ basis set information -----
Your calculation utilizes the auxiliary basis: def2/J
   F. Weigend, Phys. Chem. Chem. Phys. 8, 1057 (2006).

----- AuxC basis set information -----
Your calculation utilizes the auxiliary basis: def2-SVP/C
  H-La, Hf-Rn : A. Hellweg, C. Hattig, S. Hofener and W. Klopper, Theor. Chem. Acc. 117, 587 (2007).
        Ce-Lu : J. Chmela and M. E. Harding, Mol. Phys. (2018).

================================================================================
                                        WARNINGS
                       Please study these warnings very carefully!
================================================================================

INFO   : Checking CIS options ...
  ===> : (D) CORRECTION FOUND - SETTING MODE=3
  ===> : JK MODE FOUND - ACTIVATING RI-MP2 CODE
  ===> : MP2 AND CIS FOUND - CHECKING
WARNING: CIS(D) and MP2 runs must have the same orbital window
  ===> : adjusting orbital windows

WARNING: No MP2 level density has been requested!
         To caclulate MP2 level properties use
         %mp2 Density relaxed end
         or
         %mp2 Density unrelaxed end
         Otherwise for double-hybrid DFT only the energy is correct!

WARNING: The frozen-core approximation is turned on by default for 
         the MP2 part of double-hybrid DFT.

WARNING:  You are using a Range-Separated Double Hybrid functional with Doubles Correction 
          Changing Mode to RPA_AOINTS 


WARNING: CIS/ROCIS methods need fully converged wavefunctions
  ===> : Setting SCFConvForced true
         You can overwrite this default with %scf ConvForced false 


INFO   : the flag for use of the SHARK integral package has been found!

================================================================================
                                       INPUT FILE
================================================================================
NAME = Ir_isoCN_5_SOS-wPBEPP86_def2SVP.inp
|  1> %maxcore 8000
|  2> %pal
|  3>  nprocs 8
|  4> end
|  5> ! RI-SOS-wPBEPP86 def2-SVP def2/J def2-SVP/C RIJCOSX CPCM TIGHTSCF
|  6> 
|  7> %TDDFT 
|  8>     DCORR     1
|  9>     NROOTS    40
| 10>     doscs     TRUE
| 11>     TDA       FALSE
| 12> END
| 13> 
| 14> %CPCM
| 15>     SMD		TRUE
| 16>     SMDsolvent	"Acetonitrile"
| 17> END
| 18> 
| 19> * xyz 1 1
| 20> Ir                 -0.00795300    0.09393300   -0.02177500
| 21> S                   0.19065800   -3.16501400   -3.19042300
| 22> S                   0.03240200   -3.57554000    2.67460300
| 23> N                   1.72630000    0.01403700   -1.26914600
| 24> N                  -1.72809000   -0.28689300    1.19120600
| 25> N                   1.12502100    1.89178600    2.36391900
| 26> N                  -1.26377200    2.24237800   -2.02570000
| 27> C                   2.72506200    0.97335600   -1.33372400
| 28> C                   2.49323400    2.28001200   -0.85097900
| 29> H                   1.51617700    2.53638100   -0.44558300
| 30> C                   3.46796900    3.25600000   -0.94205100
| 31> H                   3.25465200    4.26429500   -0.57965400
| 32> C                   4.71433000    2.96064700   -1.51321600
| 33> H                   5.48537100    3.73037800   -1.58262900
| 34> C                   4.95524000    1.69251800   -2.00762100
| 35> H                   5.91858500    1.47786300   -2.47184100
| 36> C                   3.97907300    0.67711300   -1.94014600
| 37> C                   4.20446200   -0.65776200   -2.44585200
| 38> C                   5.46594500   -1.09605900   -2.89780900
| 39> H                   6.31505000   -0.41233500   -2.88141800
| 40> C                   5.65363400   -2.39149400   -3.34296900
| 41> H                   6.64170400   -2.71066300   -3.68150800
| 42> C                   4.58623500   -3.30171200   -3.33468200
| 43> H                   4.74126600   -4.33555000   -3.64895400
| 44> C                   3.33754700   -2.89501600   -2.90571100
| 45> H                   2.54232300   -3.63725000   -2.85231300
| 46> C                   3.11224800   -1.56919900   -2.47127100
| 47> C                   1.83370900   -1.14226600   -1.95251400
| 48> C                  -0.52473200   -1.36164800   -1.40654900
| 49> C                  -1.72363000   -2.04387200   -1.78045500
| 50> C                  -3.05551400   -1.81468400   -1.37183500
| 51> H                  -3.27782900   -0.99783200   -0.68283100
| 52> C                  -4.08069400   -2.60271100   -1.86933100
| 53> H                  -5.10879500   -2.42214300   -1.54588800
| 54> C                  -3.81274700   -3.62736900   -2.79544700
| 55> H                  -4.63237000   -4.24131100   -3.17583100
| 56> C                  -2.51988900   -3.86131200   -3.24836000
| 57> H                  -2.31841100   -4.64376500   -3.98302600
| 58> C                  -1.48606600   -3.06682800   -2.74301100
| 59> C                   0.58217100   -1.84825600   -2.08074000
| 60> C                  -2.78972600    0.58215000    1.39012400
| 61> C                  -2.64145700    1.96146000    1.12820000
| 62> H                  -1.67738800    2.34338700    0.79928500
| 63> C                  -3.68303000    2.84383500    1.34522300
| 64> H                  -3.53393200    3.90869200    1.15107300
| 65> C                  -4.91425000    2.37892500    1.83035200
| 66> H                  -5.73879800    3.07448800    1.99798300
| 67> C                  -5.07130800    1.03607300    2.11886400
| 68> H                  -6.02214100    0.68695000    2.52333900
| 69> C                  -4.02512900    0.11172800    1.91922200
| 70> C                  -4.15691900   -1.29593400    2.21851100
| 71> C                  -5.38682900   -1.88417800    2.57728000
| 72> H                  -6.28421500   -1.26809600    2.63949800
| 73> C                  -5.48149300   -3.23988700    2.83156200
| 74> H                  -6.44626300   -3.67496300    3.10113100
| 75> C                  -4.34858100   -4.05952800    2.71876600
| 76> H                  -4.42886100   -5.13564000    2.88349500
| 77> C                  -3.12956400   -3.50702200    2.37619700
| 78> H                  -2.28017200   -4.17447300    2.23718600
| 79> C                  -3.00003200   -2.12036300    2.13549800
| 80> C                  -1.75426500   -1.53456900    1.69825300
| 81> C                   0.61064300   -1.51853400    1.13169800
| 82> C                   1.85616000   -2.15723000    1.42082500
| 83> C                   3.16687000   -1.78634300    1.04966800
| 84> H                   3.32843000   -0.87970100    0.46450700
| 85> C                   4.24793400   -2.55129900    1.45619900
| 86> H                   5.25913000   -2.25961600    1.16200700
| 87> C                   4.05806000   -3.69379500    2.25480500
| 88> H                   4.92129800   -4.28636400    2.56642600
| 89> C                   2.78664500   -4.07349000    2.66778500
| 90> H                   2.64480500   -4.94954000    3.30414900
| 91> C                   1.69622900   -3.30307400    2.25197900
| 92> C                  -0.45598600   -2.16355300    1.73319300
| 93> C                   0.70544200    1.29539600    1.44276400
| 94> C                   1.64581800    2.59252500    3.42462300
| 95> C                   2.32349800    1.87161300    4.43097500
| 96> C                   2.85009700    2.60939200    5.49390800
| 97> H                   3.38108200    2.08177800    6.28994900
| 98> C                   2.70631200    3.99536600    5.54502300
| 99> H                   3.12865600    4.55192400    6.38484700
|100> C                   2.02712300    4.67815700    4.53670400
|101> H                   1.91554900    5.76400700    4.58635300
|102> C                   1.47600400    3.99304500    3.45127200
|103> C                   2.46141100    0.38986200    4.33497400
|104> H                   2.97221500   -0.02223100    5.21297200
|105> H                   3.03592700    0.09821000    3.44151600
|106> H                   1.48123900   -0.10519400    4.24589100
|107> C                   0.72229300    4.68451500    2.36588000
|108> H                   0.74682800    5.77311600    2.49231800
|109> H                  -0.33391800    4.37161600    2.35357300
|110> H                   1.12721500    4.44677200    1.37045700
|111> C                  -0.80019500    1.48945600   -1.25198900
|112> C                  -1.81886000    3.16450800   -2.87932400
|113> C                  -1.62701100    4.53383000   -2.59613700
|114> C                  -2.20646900    5.45093100   -3.47609300
|115> H                  -2.07788000    6.51910600   -3.28494500
|116> C                  -2.93621000    5.01880000   -4.58299900
|117> H                  -3.37962600    5.75394500   -5.25853500
|118> C                  -3.10513300    3.65826500   -4.83705100
|119> H                  -3.67791500    3.32829800   -5.70716000
|120> C                  -2.55064800    2.69532000   -3.99043000
|121> C                  -0.82487000    4.95410800   -1.41108200
|122> H                  -1.19811900    4.49474200   -0.48299800
|123> H                  -0.83905500    6.04263500   -1.28203400
|124> H                   0.22665900    4.64102800   -1.51036200
|125> C                  -2.71341500    1.23165800   -4.22277700
|126> H                  -3.28157700    1.03239700   -5.13868600
|127> H                  -3.24030300    0.74877900   -3.38497000
|128> H                  -1.73987600    0.72330300   -4.30797000
|129> *
|130> 
|131>                          ****END OF INPUT****
================================================================================

                       ****************************
                       * Single Point Calculation *
                       ****************************

---------------------------------
CARTESIAN COORDINATES (ANGSTROEM)
---------------------------------
  Ir    -0.007953    0.093933   -0.021775
  S      0.190658   -3.165014   -3.190423
  S      0.032402   -3.575540    2.674603
  N      1.726300    0.014037   -1.269146
  N     -1.728090   -0.286893    1.191206
  N      1.125021    1.891786    2.363919
  N     -1.263772    2.242378   -2.025700
  C      2.725062    0.973356   -1.333724
  C      2.493234    2.280012   -0.850979
  H      1.516177    2.536381   -0.445583
  C      3.467969    3.256000   -0.942051
  H      3.254652    4.264295   -0.579654
  C      4.714330    2.960647   -1.513216
  H      5.485371    3.730378   -1.582629
  C      4.955240    1.692518   -2.007621
  H      5.918585    1.477863   -2.471841
  C      3.979073    0.677113   -1.940146
  C      4.204462   -0.657762   -2.445852
  C      5.465945   -1.096059   -2.897809
  H      6.315050   -0.412335   -2.881418
  C      5.653634   -2.391494   -3.342969
  H      6.641704   -2.710663   -3.681508
  C      4.586235   -3.301712   -3.334682
  H      4.741266   -4.335550   -3.648954
  C      3.337547   -2.895016   -2.905711
  H      2.542323   -3.637250   -2.852313
  C      3.112248   -1.569199   -2.471271
  C      1.833709   -1.142266   -1.952514
  C     -0.524732   -1.361648   -1.406549
  C     -1.723630   -2.043872   -1.780455
  C     -3.055514   -1.814684   -1.371835
  H     -3.277829   -0.997832   -0.682831
  C     -4.080694   -2.602711   -1.869331
  H     -5.108795   -2.422143   -1.545888
  C     -3.812747   -3.627369   -2.795447
  H     -4.632370   -4.241311   -3.175831
  C     -2.519889   -3.861312   -3.248360
  H     -2.318411   -4.643765   -3.983026
  C     -1.486066   -3.066828   -2.743011
  C      0.582171   -1.848256   -2.080740
  C     -2.789726    0.582150    1.390124
  C     -2.641457    1.961460    1.128200
  H     -1.677388    2.343387    0.799285
  C     -3.683030    2.843835    1.345223
  H     -3.533932    3.908692    1.151073
  C     -4.914250    2.378925    1.830352
  H     -5.738798    3.074488    1.997983
  C     -5.071308    1.036073    2.118864
  H     -6.022141    0.686950    2.523339
  C     -4.025129    0.111728    1.919222
  C     -4.156919   -1.295934    2.218511
  C     -5.386829   -1.884178    2.577280
  H     -6.284215   -1.268096    2.639498
  C     -5.481493   -3.239887    2.831562
  H     -6.446263   -3.674963    3.101131
  C     -4.348581   -4.059528    2.718766
  H     -4.428861   -5.135640    2.883495
  C     -3.129564   -3.507022    2.376197
  H     -2.280172   -4.174473    2.237186
  C     -3.000032   -2.120363    2.135498
  C     -1.754265   -1.534569    1.698253
  C      0.610643   -1.518534    1.131698
  C      1.856160   -2.157230    1.420825
  C      3.166870   -1.786343    1.049668
  H      3.328430   -0.879701    0.464507
  C      4.247934   -2.551299    1.456199
  H      5.259130   -2.259616    1.162007
  C      4.058060   -3.693795    2.254805
  H      4.921298   -4.286364    2.566426
  C      2.786645   -4.073490    2.667785
  H      2.644805   -4.949540    3.304149
  C      1.696229   -3.303074    2.251979
  C     -0.455986   -2.163553    1.733193
  C      0.705442    1.295396    1.442764
  C      1.645818    2.592525    3.424623
  C      2.323498    1.871613    4.430975
  C      2.850097    2.609392    5.493908
  H      3.381082    2.081778    6.289949
  C      2.706312    3.995366    5.545023
  H      3.128656    4.551924    6.384847
  C      2.027123    4.678157    4.536704
  H      1.915549    5.764007    4.586353
  C      1.476004    3.993045    3.451272
  C      2.461411    0.389862    4.334974
  H      2.972215   -0.022231    5.212972
  H      3.035927    0.098210    3.441516
  H      1.481239   -0.105194    4.245891
  C      0.722293    4.684515    2.365880
  H      0.746828    5.773116    2.492318
  H     -0.333918    4.371616    2.353573
  H      1.127215    4.446772    1.370457
  C     -0.800195    1.489456   -1.251989
  C     -1.818860    3.164508   -2.879324
  C     -1.627011    4.533830   -2.596137
  C     -2.206469    5.450931   -3.476093
  H     -2.077880    6.519106   -3.284945
  C     -2.936210    5.018800   -4.582999
  H     -3.379626    5.753945   -5.258535
  C     -3.105133    3.658265   -4.837051
  H     -3.677915    3.328298   -5.707160
  C     -2.550648    2.695320   -3.990430
  C     -0.824870    4.954108   -1.411082
  H     -1.198119    4.494742   -0.482998
  H     -0.839055    6.042635   -1.282034
  H      0.226659    4.641028   -1.510362
  C     -2.713415    1.231658   -4.222777
  H     -3.281577    1.032397   -5.138686
  H     -3.240303    0.748779   -3.384970
  H     -1.739876    0.723303   -4.307970

----------------------------
CARTESIAN COORDINATES (A.U.)
----------------------------
  NO LB      ZA    FRAG     MASS         X           Y           Z
   0 Ir   17.0000*   0   192.220   -0.015029    0.177508   -0.041149
   1 S    16.0000    0    32.060    0.360291   -5.981010   -6.029026
   2 S    16.0000    0    32.060    0.061231   -6.756791    5.054267
   3 N     7.0000    0    14.007    3.262234    0.026526   -2.398338
   4 N     7.0000    0    14.007   -3.265617   -0.542149    2.251053
   5 N     7.0000    0    14.007    2.125982    3.574957    4.467160
   6 N     7.0000    0    14.007   -2.388183    4.237480   -3.828018
   7 C     6.0000    0    12.011    5.149621    1.839376   -2.520373
   8 C     6.0000    0    12.011    4.711529    4.308598   -1.608117
   9 H     1.0000    0     1.008    2.865159    4.793065   -0.842030
  10 C     6.0000    0    12.011    6.553512    6.152948   -1.780218
  11 H     1.0000    0     1.008    6.150401    8.058350   -1.095387
  12 C     6.0000    0    12.011    8.908793    5.594812   -2.859564
  13 H     1.0000    0     1.008   10.365849    7.049393   -2.990735
  14 C     6.0000    0    12.011    9.364047    3.198395   -3.793854
  15 H     1.0000    0     1.008   11.184505    2.792756   -4.671103
  16 C     6.0000    0    12.011    7.519358    1.279558   -3.666345
  17 C     6.0000    0    12.011    7.945282   -1.242990   -4.621990
  18 C     6.0000    0    12.011   10.329139   -2.071251   -5.476065
  19 H     1.0000    0     1.008   11.933715   -0.779200   -5.445091
  20 C     6.0000    0    12.011   10.683820   -4.519269   -6.317296
  21 H     1.0000    0     1.008   12.551002   -5.122411   -6.957042
  22 C     6.0000    0    12.011    8.666728   -6.239331   -6.301636
  23 H     1.0000    0     1.008    8.959694   -8.193002   -6.895524
  24 C     6.0000    0    12.011    6.307050   -5.470787   -5.490998
  25 H     1.0000    0     1.008    4.804294   -6.873406   -5.390090
  26 C     6.0000    0    12.011    5.881296   -2.965356   -4.670025
  27 C     6.0000    0    12.011    3.465208   -2.158570   -3.689717
  28 C     6.0000    0    12.011   -0.991600   -2.573142   -2.657992
  29 C     6.0000    0    12.011   -3.257189   -3.862358   -3.364572
  30 C     6.0000    0    12.011   -5.774085   -3.429256   -2.592392
  31 H     1.0000    0     1.008   -6.194199   -1.885629   -1.290364
  32 C     6.0000    0    12.011   -7.711394   -4.918411   -3.532524
  33 H     1.0000    0     1.008   -9.654223   -4.577187   -2.921305
  34 C     6.0000    0    12.011   -7.205048   -6.854734   -5.282629
  35 H     1.0000    0     1.008   -8.753911   -8.014916   -6.001451
  36 C     6.0000    0    12.011   -4.761900   -7.296822   -6.138511
  37 H     1.0000    0     1.008   -4.381162   -8.775444   -7.526828
  38 C     6.0000    0    12.011   -2.808258   -5.795465   -5.183540
  39 C     6.0000    0    12.011    1.100144   -3.492698   -3.932029
  40 C     6.0000    0    12.011   -5.271818    1.100104    2.626954
  41 C     6.0000    0    12.011   -4.991630    3.706622    2.131989
  42 H     1.0000    0     1.008   -3.169804    4.428360    1.510430
  43 C     6.0000    0    12.011   -6.959918    5.374069    2.542103
  44 H     1.0000    0     1.008   -6.678164    7.386357    2.175213
  45 C     6.0000    0    12.011   -9.286587    4.495517    3.458864
  46 H     1.0000    0     1.008  -10.844757    5.809940    3.775641
  47 C     6.0000    0    12.011   -9.583383    1.957894    4.004073
  48 H     1.0000    0     1.008  -11.380197    1.298147    4.768420
  49 C     6.0000    0    12.011   -7.606391    0.211135    3.626804
  50 C     6.0000    0    12.011   -7.855438   -2.448960    4.192378
  51 C     6.0000    0    12.011  -10.179632   -3.560580    4.870353
  52 H     1.0000    0     1.008  -11.875445   -2.396354    4.987928
  53 C     6.0000    0    12.011  -10.358521   -6.122499    5.350877
  54 H     1.0000    0     1.008  -12.181672   -6.944674    5.860288
  55 C     6.0000    0    12.011   -8.217627   -7.671396    5.137723
  56 H     1.0000    0     1.008   -8.369334   -9.704953    5.449016
  57 C     6.0000    0    12.011   -5.914019   -6.627311    4.490362
  58 H     1.0000    0     1.008   -4.308901   -7.888611    4.227669
  59 C     6.0000    0    12.011   -5.669239   -4.006905    4.035506
  60 C     6.0000    0    12.011   -3.315080   -2.899915    3.209233
  61 C     6.0000    0    12.011    1.153948   -2.869613    2.138599
  62 C     6.0000    0    12.011    3.507634   -4.076574    2.684970
  63 C     6.0000    0    12.011    5.984517   -3.375699    1.983585
  64 H     1.0000    0     1.008    6.289821   -1.662394    0.877791
  65 C     6.0000    0    12.011    8.027432   -4.821256    2.751817
  66 H     1.0000    0     1.008    9.938315   -4.270055    2.195875
  67 C     6.0000    0    12.011    7.668622   -6.980261    4.260964
  68 H     1.0000    0     1.008    9.299905   -8.100054    4.849842
  69 C     6.0000    0    12.011    5.265996   -7.697781    5.041383
  70 H     1.0000    0     1.008    4.997957   -9.353275    6.243937
  71 C     6.0000    0    12.011    3.205408   -6.241905    4.255624
  72 C     6.0000    0    12.011   -0.861689   -4.088523    3.275260
  73 C     6.0000    0    12.011    1.333092    2.447944    2.726429
  74 C     6.0000    0    12.011    3.110145    4.899162    6.471600
  75 C     6.0000    0    12.011    4.390775    3.536836    8.373329
  76 C     6.0000    0    12.011    5.385903    4.931036   10.381982
  77 H     1.0000    0     1.008    6.389319    3.933990   11.886281
  78 C     6.0000    0    12.011    5.114189    7.550148   10.478575
  79 H     1.0000    0     1.008    5.912303    8.601890   12.065612
  80 C     6.0000    0    12.011    3.830707    8.840436    8.573128
  81 H     1.0000    0     1.008    3.619863   10.892395    8.666951
  82 C     6.0000    0    12.011    2.789243    7.545761    6.521959
  83 C     6.0000    0    12.011    4.651393    0.736732    8.191914
  84 H     1.0000    0     1.008    5.616672   -0.042011    9.851089
  85 H     1.0000    0     1.008    5.737071    0.185590    6.503523
  86 H     1.0000    0     1.008    2.799136   -0.198788    8.023571
  87 C     6.0000    0    12.011    1.364936    8.852450    4.470865
  88 H     1.0000    0     1.008    1.411300   10.909608    4.709798
  89 H     1.0000    0     1.008   -0.631014    8.261157    4.447608
  90 H     1.0000    0     1.008    2.130128    8.403181    2.589788
  91 C     6.0000    0    12.011   -1.512149    2.814664   -2.365916
  92 C     6.0000    0    12.011   -3.437147    5.980053   -5.441134
  93 C     6.0000    0    12.011   -3.074605    8.567697   -4.905988
  94 C     6.0000    0    12.011   -4.169622   10.300767   -6.568864
  95 H     1.0000    0     1.008   -3.926624   12.319325   -6.207646
  96 C     6.0000    0    12.011   -5.548633    9.484158   -8.660613
  97 H     1.0000    0     1.008   -6.386568   10.873380   -9.937191
  98 C     6.0000    0    12.011   -5.867851    6.913119   -9.140702
  99 H     1.0000    0     1.008   -6.950252    6.289572  -10.784969
 100 C     6.0000    0    12.011   -4.820026    5.093417   -7.540820
 101 C     6.0000    0    12.011   -1.558778    9.361907   -2.666559
 102 H     1.0000    0     1.008   -2.264117    8.493831   -0.912734
 103 H     1.0000    0     1.008   -1.585584   11.418925   -2.422693
 104 H     1.0000    0     1.008    0.428323    8.770272   -2.854171
 105 C     6.0000    0    12.011   -5.127611    2.327496   -7.979892
 106 H     1.0000    0     1.008   -6.201282    1.950948   -9.710709
 107 H     1.0000    0     1.008   -6.123285    1.414987   -6.396666
 108 H     1.0000    0     1.008   -3.287889    1.366845   -8.140883
* core charge reduced due to ECP

--------------------------------
INTERNAL COORDINATES (ANGSTROEM)
--------------------------------
 Ir     0   0   0     0.000000000000     0.00000000     0.00000000
 S      1   0   0     4.549781536078     0.00000000     0.00000000
 S      1   2   0     4.553802251156    80.49110890     0.00000000
 N      1   2   3     2.137744430578    62.05942291   116.26722721
 N      1   2   3     2.138977009555   107.60882824   303.73775021
 N      1   2   3     3.194908661593   155.18059075    69.97225449
 N      1   2   3     3.195091968068    93.55486592   202.94973751
 C      4   1   2     1.386358104708   125.85689361   170.51648855
 C      8   4   1     1.412139107505   120.40361348   341.70244737
 H      9   8   4     1.088444469059   119.51395937   358.72885183
 C      9   8   4     1.382372961813   120.99787114   181.75883310
 H     11   9   8     1.092471754840   119.47787214   178.72205607
 C     11   9   8     1.402454489156   120.31685902   359.67212123
 H     13  11   9     1.091699684259   120.33631647   180.18066771
 C     13  11   9     1.382253628234   119.58856034     1.16505923
 H     15  13  11     1.090692700283   119.12594179   178.54206534
 C     15  13  11     1.410142617447   121.52396843   359.34052950
 C     17  15  13     1.445140140395   122.71230269   180.14900694
 C     18  17  15     1.409861251807   122.60789479     7.86705707
 H     19  18  17     1.090287335560   119.80532089   359.41854907
 C     19  18  17     1.382586860037   121.06188434   178.29604174
 H     21  19  18     1.092135444889   119.76501396   180.45206268
 C     21  19  18     1.402820767986   120.18230066   359.14784215
 H     23  21  19     1.091614634928   120.31432248   182.38935559
 C     23  21  19     1.381535188333   119.90439558     1.29951722
 H     25  23  21     1.089102321794   118.33029621   183.66198290
 C     25  23  21     1.413254566768   121.04462180     0.00000000
 C      4   1   2     1.347429087008   113.12077900   345.72399792
 C      1   2   3     2.074457908341    16.93833799   271.97591022
 C     29   1   2     1.429192673301   135.93533524   170.56840990
 C     30  29   1     1.411882584778   129.65244496     7.70680356
 H     31  30  29     1.091511640407   119.75594564     1.34311816
 C     31  30  29     1.385454024912   120.11771982   179.74779079
 H     33  31  30     1.092800001406   119.72824086   179.77328145
 C     33  31  30     1.406915227449   120.64342834   359.28097967
 H     35  33  31     1.092427859837   119.71063901   179.83825051
 C     35  33  31     1.389727067083   120.95085228   359.03626860
 H     37  35  33     1.092044052797   120.76367019   181.29035914
 C     37  35  33     1.398346320976   118.31802567     1.07481360
 C     29   1   2     1.384397017316   111.87208477   355.29524385
 C      5   1   2     1.386317100475   125.84560386   238.36658173
 C     41   5   1     1.411766253399   120.35872662   340.56407269
 H     42  41   5     1.087879748554   119.48320722   358.03372959
 C     42  41   5     1.382229697801   121.02584637   181.20968612
 H     44  42  41     1.092632081971   119.43376416   178.88352999
 C     44  42  41     1.402638279508   120.27613004   359.87122111
 H     46  44  42     1.091690177401   120.32567368   180.26356536
 C     46  44  42     1.382446340156   119.59506891     1.43330755
 H     48  46  44     1.090674235802   119.16771451   178.21928052
 C     48  46  44     1.410234415702   121.52410772   359.08960347
 C     50  48  46     1.445148717560   122.78455755   179.63995784
 C     51  50  48     1.409760549525   122.59563050     7.98092093
 H     52  51  50     1.090288834779   119.78915109   359.81196358
 C     52  51  50     1.382594481799   121.04355242   178.71628987
 H     54  52  51     1.092126240156   119.76927952   180.42574876
 C     54  52  51     1.402862753886   120.18681103   359.18727658
 H     56  54  52     1.091603205558   120.29464244   182.23894980
 C     56  54  52     1.381527721794   119.92410761     1.17064303
 H     58  56  54     1.089165582079   118.33923338   183.62255131
 C     58  56  54     1.413342750328   121.02897001     0.00000000
 C      5   1   2     1.347025312238   113.20352365    53.61751235
 C      1   2   3     2.076827098974    79.49450466    17.06880571
 C     62   1   2     1.429279398800   135.96067675    82.75714707
 C     63  62   1     1.411834051692   129.67576050     5.68963132
 H     64  63  62     1.091107119253   119.78444441     0.91566508
 C     64  63  62     1.385324694067   120.15023733   179.23151575
 H     66  64  63     1.092769534609   119.71740001   179.79173771
 C     66  64  63     1.406812279278   120.64388909   359.20390669
 H     68  66  64     1.092440164058   119.72205975   179.97219682
 C     68  66  64     1.389682293062   120.93527030   359.23285634
 H     70  68  66     1.092035406292   120.74321694   181.22945072
 C     70  68  66     1.398371372615   118.32802498     1.00001786
 C     62   1   2     1.384031491342   111.94198015   265.55884665
 C      6   1   2     1.174842161044     3.81690816   114.40463322
 C      6   1   2     1.373811354206   176.36887420   316.52840521
 C     75   6  74     1.411279080143   118.16674063   271.57011761
 C     76  75   6     1.396943421235   116.98841441   179.62716924
 H     77  76  75     1.092704386786   118.84801994   180.01591152
 C     77  76  75     1.394349596811   120.92974410   359.94623974
 H     79  77  76     1.092444787015   119.65101042   180.15434508
 C     79  77  76     1.394348755930   120.69469063     0.26728980
 H     81  79  77     1.092695750507   120.23158295   179.76199522
 C     81  79  77     1.396879819930   120.92550056   359.92399118
 C     76  75   6     1.491248541850   120.40251756   359.89130981
 H     84  76  75     1.096185137223   111.41199516   182.51576365
 H     84  76  75     1.101542882109   111.31715826    62.04505059
 H     84  76  75     1.101704757913   111.67975530   303.49323701
 C     83  81  79     1.491404313419   122.51324775   178.90193930
 H     88  83  81     1.096193719773   111.41816102     5.20348422
 H     88  83  81     1.101652814171   111.15971408   245.01007480
 H     88  83  81     1.100613696563   111.84708995   126.31612420
 C      7   1   2     1.174914415834     2.55110647   183.87255720
 C      7   1   2     1.373724993592   179.28309901   107.19938598
 C     93   7  92     1.411397766561   118.14130208    35.51719389
 C     94  93   7     1.396842288843   117.01316921   180.27315959
 H     95  94  93     1.092735338245   118.86735702   179.93155015
 C     95  94  93     1.394453305449   120.90971278   359.82909228
 H     97  95  94     1.092430687676   119.65242267   180.07122594
 C     97  95  94     1.394321657602   120.69157239     0.03081463
 H     99  97  95     1.092724627934   120.21456026   180.04239400
 C     99  97  95     1.396955191082   120.93741477     0.08733936
 C     94  93   7     1.491448669646   120.39252537     0.88350918
 H    102  94  93     1.100759669053   111.71306335   305.81735791
 H    102  94  93     1.096241593016   111.49282235   184.73492860
 H    102  94  93     1.101630084303   111.20312388    64.43459046
 C    101  99  97     1.490900625442   122.61158889   179.69724434
 H    106 101  99     1.096084987875   111.42533473     1.84103809
 H    106 101  99     1.101228251742   111.35529053   241.26409030
 H    106 101  99     1.101571984845   111.63041864   122.72968219

---------------------------
INTERNAL COORDINATES (A.U.)
---------------------------
 Ir     0   0   0     0.000000000000     0.00000000     0.00000000
 S      1   0   0     8.597841072358     0.00000000     0.00000000
 S      1   2   0     8.605439122720    80.49110890     0.00000000
 N      1   2   3     4.039751518107    62.05942291   116.26722721
 N      1   2   3     4.042080754813   107.60882824   303.73775021
 N      1   2   3     6.037502393303   155.18059075    69.97225449
 N      1   2   3     6.037848792339    93.55486592   202.94973751
 C      4   1   2     2.619837141440   125.85689361   170.51648855
 C      8   4   1     2.668556176184   120.40361348   341.70244737
 H      9   8   4     2.056861958504   119.51395937   358.72885183
 C      9   8   4     2.612306312765   120.99787114   181.75883310
 H     11   9   8     2.064472425692   119.47787214   178.72205607
 C     11   9   8     2.650254899794   120.31685902   359.67212123
 H     13  11   9     2.063013423738   120.33631647   180.18066771
 C     13  11   9     2.612080804981   119.58856034     1.16505923
 H     15  13  11     2.061110499801   119.12594179   178.54206534
 C     15  13  11     2.664783356745   121.52396843   359.34052950
 C     17  15  13     2.730919090484   122.71230269   180.14900694
 C     18  17  15     2.664251652743   122.60789479     7.86705707
 H     19  18  17     2.060344471491   119.80532089   359.41854907
 C     19  18  17     2.612710521827   121.06188434   178.29604174
 H     21  19  18     2.063836891988   119.76501396   180.45206268
 C     21  19  18     2.650947066471   120.18230066   359.14784215
 H     23  21  19     2.062852703794   120.31432248   182.38935559
 C     23  21  19     2.610723150324   119.90439558     1.29951722
 H     25  23  21     2.058105120007   118.33029621   183.66198290
 C     25  23  21     2.670664088705   121.04462180     0.00000000
 C      4   1   2     2.546271959324   113.12077900   345.72399792
 C      1   2   3     3.920157323111    16.93833799   271.97591022
 C     29   1   2     2.700782745145   135.93533524   170.56840990
 C     30  29   1     2.668071418484   129.65244496     7.70680356
 H     31  30  29     2.062658072357   119.75594564     1.34311816
 C     31  30  29     2.618128678223   120.11771982   179.74779079
 H     33  31  30     2.065092721807   119.72824086   179.77328145
 C     33  31  30     2.658684473523   120.64342834   359.28097967
 H     35  33  31     2.064389476158   119.71063901   179.83825051
 C     35  33  31     2.626203557684   120.95085228   359.03626860
 H     37  35  33     2.063664185964   120.76367019   181.29035914
 C     37  35  33     2.642491587020   118.31802567     1.07481360
 C     29   1   2     2.616131223345   111.87208477   355.29524385
 C      5   1   2     2.619759654669   125.84560386   238.36658173
 C     41   5   1     2.667851584037   120.35872662   340.56407269
 H     42  41   5     2.055794791407   119.48320722   358.03372959
 C     42  41   5     2.612035583017   121.02584637   181.20968612
 H     44  42  41     2.064775400062   119.43376416   178.88352999
 C     44  42  41     2.650602213224   120.27613004   359.87122111
 H     46  44  42     2.062995458380   120.32567368   180.26356536
 C     46  44  42     2.612444977737   119.59506891     1.43330755
 H     48  46  44     2.061075606990   119.16771451   178.21928052
 C     48  46  44     2.664956830307   121.52410772   359.08960347
 C     50  48  46     2.730935298976   122.78455755   179.63995784
 C     51  50  48     2.664061353009   122.59563050     7.98092093
 H     52  51  50     2.060347304605   119.78915109   359.81196358
 C     52  51  50     2.612724924871   121.04355242   178.71628987
 H     54  52  51     2.063819497564   119.76927952   180.42574876
 C     54  52  51     2.651026408323   120.18681103   359.18727658
 H     56  54  52     2.062831105416   120.29464244   182.23894980
 C     56  54  52     2.610709040611   119.92410761     1.17064303
 H     58  56  54     2.058224664623   118.33923338   183.62255131
 C     58  56  54     2.670830731484   121.02897001     0.00000000
 C      5   1   2     2.545508935590   113.20352365    53.61751235
 C      1   2   3     3.924634444568    79.49450466    17.06880571
 C     62   1   2     2.700946632588   135.96067675    82.75714707
 C     63  62   1     2.667979704243   129.67576050     5.68963132
 H     64  63  62     2.061893638160   119.78444441     0.91566508
 C     64  63  62     2.617884278346   120.15023733   179.23151575
 H     66  64  63     2.065035147903   119.71740001   179.79173771
 C     66  64  63     2.658489929673   120.64388909   359.20390669
 H     68  66  64     2.064412727765   119.72205975   179.97219682
 C     68  66  64     2.626118947047   120.93527030   359.23285634
 H     70  68  66     2.063647846438   120.74321694   181.22945072
 C     70  68  66     2.642538927757   118.32802498     1.00001786
 C     62   1   2     2.615440479359   111.94198015   265.55884665
 C      6   1   2     2.220129934957     3.81690816   114.40463322
 C      6   1   2     2.596127219121   176.36887420   316.52840521
 C     75   6  74     2.666930960002   118.16674063   271.57011761
 C     76  75   6     2.639840490717   116.98841441   179.62716924
 H     77  76  75     2.064912036360   118.84801994   180.01591152
 C     77  76  75     2.634938872916   120.92974410   359.94623974
 H     79  77  76     2.064421463888   119.65101042   180.15434508
 C     79  77  76     2.634937283881   120.69469063     0.26728980
 H     81  79  77     2.064895716159   120.23158295   179.76199522
 C     81  79  77     2.639720301670   120.92550056   359.92399118
 C     76  75   6     2.818051341707   120.40251756   359.89130981
 H     84  76  75     2.071489701427   111.41199516   182.51576365
 H     84  76  75     2.081614371955   111.31715826    62.04505059
 H     84  76  75     2.081920272894   111.67975530   303.49323701
 C     83  81  79     2.818345707311   122.51324775   178.90193930
 H     88  83  81     2.071505920096   111.41816102     5.20348422
 H     88  83  81     2.081822113447   111.15971408   245.01007480
 H     88  83  81     2.079858465747   111.84708995   126.31612420
 C      7   1   2     2.220266476722     2.55110647   183.87255720
 C      7   1   2     2.595964021212   179.28309901   107.19938598
 C     93   7  92     2.667155244829   118.14130208    35.51719389
 C     94  93   7     2.639649378194   117.01316921   180.27315959
 H     95  94  93     2.064970526141   118.86735702   179.93155015
 C     95  94  93     2.635134853840   120.90971278   359.82909228
 H     97  95  94     2.064394820000   119.65242267   180.07122594
 C     97  95  94     2.634886075463   120.69157239     0.03081463
 H     99  97  95     2.064950286587   120.21456026   180.04239400
 C     99  97  95     2.639862732505   120.93741477     0.08733936
 C     94  93   7     2.818429528433   120.39252537     0.88350918
 H    102  94  93     2.080134313775   111.71306335   305.81735791
 H    102  94  93     2.071596387414   111.49282235   184.73492860
 H    102  94  93     2.081779160221   111.20312388    64.43459046
 C    101  99  97     2.817393874976   122.61158889   179.69724434
 H    106 101  99     2.071300446587   111.42533473     1.84103809
 H    106 101  99     2.081019806729   111.35529053   241.26409030
 H    106 101  99     2.081669368157   111.63041864   122.72968219

---------------------
BASIS SET INFORMATION
---------------------
There are 5 groups of distinct atoms

 Group   1 Type Ir  : 7s6p5d1f contracted to 6s3p2d1f pattern {211111/411/41/1}
 Group   2 Type S   : 10s7p1d contracted to 4s3p1d pattern {5311/511/1}
 Group   3 Type N   : 7s4p1d contracted to 3s2p1d pattern {511/31/1}
 Group   4 Type C   : 7s4p1d contracted to 3s2p1d pattern {511/31/1}
 Group   5 Type H   : 4s1p contracted to 2s1p pattern {31/1}

Atom   0Ir   basis set group =>   1
Atom   1S    basis set group =>   2
Atom   2S    basis set group =>   2
Atom   3N    basis set group =>   3
Atom   4N    basis set group =>   3
Atom   5N    basis set group =>   3
Atom   6N    basis set group =>   3
Atom   7C    basis set group =>   4
Atom   8C    basis set group =>   4
Atom   9H    basis set group =>   5
Atom  10C    basis set group =>   4
Atom  11H    basis set group =>   5
Atom  12C    basis set group =>   4
Atom  13H    basis set group =>   5
Atom  14C    basis set group =>   4
Atom  15H    basis set group =>   5
Atom  16C    basis set group =>   4
Atom  17C    basis set group =>   4
Atom  18C    basis set group =>   4
Atom  19H    basis set group =>   5
Atom  20C    basis set group =>   4
Atom  21H    basis set group =>   5
Atom  22C    basis set group =>   4
Atom  23H    basis set group =>   5
Atom  24C    basis set group =>   4
Atom  25H    basis set group =>   5
Atom  26C    basis set group =>   4
Atom  27C    basis set group =>   4
Atom  28C    basis set group =>   4
Atom  29C    basis set group =>   4
Atom  30C    basis set group =>   4
Atom  31H    basis set group =>   5
Atom  32C    basis set group =>   4
Atom  33H    basis set group =>   5
Atom  34C    basis set group =>   4
Atom  35H    basis set group =>   5
Atom  36C    basis set group =>   4
Atom  37H    basis set group =>   5
Atom  38C    basis set group =>   4
Atom  39C    basis set group =>   4
Atom  40C    basis set group =>   4
Atom  41C    basis set group =>   4
Atom  42H    basis set group =>   5
Atom  43C    basis set group =>   4
Atom  44H    basis set group =>   5
Atom  45C    basis set group =>   4
Atom  46H    basis set group =>   5
Atom  47C    basis set group =>   4
Atom  48H    basis set group =>   5
Atom  49C    basis set group =>   4
Atom  50C    basis set group =>   4
Atom  51C    basis set group =>   4
Atom  52H    basis set group =>   5
Atom  53C    basis set group =>   4
Atom  54H    basis set group =>   5
Atom  55C    basis set group =>   4
Atom  56H    basis set group =>   5
Atom  57C    basis set group =>   4
Atom  58H    basis set group =>   5
Atom  59C    basis set group =>   4
Atom  60C    basis set group =>   4
Atom  61C    basis set group =>   4
Atom  62C    basis set group =>   4
Atom  63C    basis set group =>   4
Atom  64H    basis set group =>   5
Atom  65C    basis set group =>   4
Atom  66H    basis set group =>   5
Atom  67C    basis set group =>   4
Atom  68H    basis set group =>   5
Atom  69C    basis set group =>   4
Atom  70H    basis set group =>   5
Atom  71C    basis set group =>   4
Atom  72C    basis set group =>   4
Atom  73C    basis set group =>   4
Atom  74C    basis set group =>   4
Atom  75C    basis set group =>   4
Atom  76C    basis set group =>   4
Atom  77H    basis set group =>   5
Atom  78C    basis set group =>   4
Atom  79H    basis set group =>   5
Atom  80C    basis set group =>   4
Atom  81H    basis set group =>   5
Atom  82C    basis set group =>   4
Atom  83C    basis set group =>   4
Atom  84H    basis set group =>   5
Atom  85H    basis set group =>   5
Atom  86H    basis set group =>   5
Atom  87C    basis set group =>   4
Atom  88H    basis set group =>   5
Atom  89H    basis set group =>   5
Atom  90H    basis set group =>   5
Atom  91C    basis set group =>   4
Atom  92C    basis set group =>   4
Atom  93C    basis set group =>   4
Atom  94C    basis set group =>   4
Atom  95H    basis set group =>   5
Atom  96C    basis set group =>   4
Atom  97H    basis set group =>   5
Atom  98C    basis set group =>   4
Atom  99H    basis set group =>   5
Atom 100C    basis set group =>   4
Atom 101C    basis set group =>   4
Atom 102H    basis set group =>   5
Atom 103H    basis set group =>   5
Atom 104H    basis set group =>   5
Atom 105C    basis set group =>   4
Atom 106H    basis set group =>   5
Atom 107H    basis set group =>   5
Atom 108H    basis set group =>   5
---------------------------------
AUXILIARY/J BASIS SET INFORMATION
---------------------------------
There are 5 groups of distinct atoms

 Group   1 Type Ir  : 11s5p5d3f3g contracted to 8s5p5d2f3g pattern {41111111/11111/11111/21/111}
 Group   2 Type S   : 14s5p5d2f1g contracted to 8s4p3d1f1g pattern {71111111/2111/311/2/1}
 Group   3 Type N   : 12s5p4d2f1g contracted to 6s4p3d1f1g pattern {711111/2111/211/2/1}
 Group   4 Type C   : 12s5p4d2f1g contracted to 6s4p3d1f1g pattern {711111/2111/211/2/1}
 Group   5 Type H   : 5s2p1d contracted to 3s1p1d pattern {311/2/1}

Atom   0Ir   basis set group =>   1
Atom   1S    basis set group =>   2
Atom   2S    basis set group =>   2
Atom   3N    basis set group =>   3
Atom   4N    basis set group =>   3
Atom   5N    basis set group =>   3
Atom   6N    basis set group =>   3
Atom   7C    basis set group =>   4
Atom   8C    basis set group =>   4
Atom   9H    basis set group =>   5
Atom  10C    basis set group =>   4
Atom  11H    basis set group =>   5
Atom  12C    basis set group =>   4
Atom  13H    basis set group =>   5
Atom  14C    basis set group =>   4
Atom  15H    basis set group =>   5
Atom  16C    basis set group =>   4
Atom  17C    basis set group =>   4
Atom  18C    basis set group =>   4
Atom  19H    basis set group =>   5
Atom  20C    basis set group =>   4
Atom  21H    basis set group =>   5
Atom  22C    basis set group =>   4
Atom  23H    basis set group =>   5
Atom  24C    basis set group =>   4
Atom  25H    basis set group =>   5
Atom  26C    basis set group =>   4
Atom  27C    basis set group =>   4
Atom  28C    basis set group =>   4
Atom  29C    basis set group =>   4
Atom  30C    basis set group =>   4
Atom  31H    basis set group =>   5
Atom  32C    basis set group =>   4
Atom  33H    basis set group =>   5
Atom  34C    basis set group =>   4
Atom  35H    basis set group =>   5
Atom  36C    basis set group =>   4
Atom  37H    basis set group =>   5
Atom  38C    basis set group =>   4
Atom  39C    basis set group =>   4
Atom  40C    basis set group =>   4
Atom  41C    basis set group =>   4
Atom  42H    basis set group =>   5
Atom  43C    basis set group =>   4
Atom  44H    basis set group =>   5
Atom  45C    basis set group =>   4
Atom  46H    basis set group =>   5
Atom  47C    basis set group =>   4
Atom  48H    basis set group =>   5
Atom  49C    basis set group =>   4
Atom  50C    basis set group =>   4
Atom  51C    basis set group =>   4
Atom  52H    basis set group =>   5
Atom  53C    basis set group =>   4
Atom  54H    basis set group =>   5
Atom  55C    basis set group =>   4
Atom  56H    basis set group =>   5
Atom  57C    basis set group =>   4
Atom  58H    basis set group =>   5
Atom  59C    basis set group =>   4
Atom  60C    basis set group =>   4
Atom  61C    basis set group =>   4
Atom  62C    basis set group =>   4
Atom  63C    basis set group =>   4
Atom  64H    basis set group =>   5
Atom  65C    basis set group =>   4
Atom  66H    basis set group =>   5
Atom  67C    basis set group =>   4
Atom  68H    basis set group =>   5
Atom  69C    basis set group =>   4
Atom  70H    basis set group =>   5
Atom  71C    basis set group =>   4
Atom  72C    basis set group =>   4
Atom  73C    basis set group =>   4
Atom  74C    basis set group =>   4
Atom  75C    basis set group =>   4
Atom  76C    basis set group =>   4
Atom  77H    basis set group =>   5
Atom  78C    basis set group =>   4
Atom  79H    basis set group =>   5
Atom  80C    basis set group =>   4
Atom  81H    basis set group =>   5
Atom  82C    basis set group =>   4
Atom  83C    basis set group =>   4
Atom  84H    basis set group =>   5
Atom  85H    basis set group =>   5
Atom  86H    basis set group =>   5
Atom  87C    basis set group =>   4
Atom  88H    basis set group =>   5
Atom  89H    basis set group =>   5
Atom  90H    basis set group =>   5
Atom  91C    basis set group =>   4
Atom  92C    basis set group =>   4
Atom  93C    basis set group =>   4
Atom  94C    basis set group =>   4
Atom  95H    basis set group =>   5
Atom  96C    basis set group =>   4
Atom  97H    basis set group =>   5
Atom  98C    basis set group =>   4
Atom  99H    basis set group =>   5
Atom 100C    basis set group =>   4
Atom 101C    basis set group =>   4
Atom 102H    basis set group =>   5
Atom 103H    basis set group =>   5
Atom 104H    basis set group =>   5
Atom 105C    basis set group =>   4
Atom 106H    basis set group =>   5
Atom 107H    basis set group =>   5
Atom 108H    basis set group =>   5
---------------------------------
AUXILIARY/C BASIS SET INFORMATION
---------------------------------
There are 5 groups of distinct atoms

 Group   1 Type Ir  : 8s8p7d5f3g1h contracted to 8s8p7d5f3g1h pattern {11111111/11111111/1111111/11111/111/1}
 Group   2 Type S   : 10s7p7d3f contracted to 8s5p5d2f pattern {31111111/31111/31111/12}
 Group   3 Type N   : 8s6p5d3f contracted to 6s5p4d1f pattern {311111/21111/2111/3}
 Group   4 Type C   : 8s6p5d3f contracted to 6s5p4d1f pattern {311111/21111/2111/3}
 Group   5 Type H   : 4s3p2d contracted to 3s2p1d pattern {211/21/2}

Atom   0Ir   basis set group =>   1
Atom   1S    basis set group =>   2
Atom   2S    basis set group =>   2
Atom   3N    basis set group =>   3
Atom   4N    basis set group =>   3
Atom   5N    basis set group =>   3
Atom   6N    basis set group =>   3
Atom   7C    basis set group =>   4
Atom   8C    basis set group =>   4
Atom   9H    basis set group =>   5
Atom  10C    basis set group =>   4
Atom  11H    basis set group =>   5
Atom  12C    basis set group =>   4
Atom  13H    basis set group =>   5
Atom  14C    basis set group =>   4
Atom  15H    basis set group =>   5
Atom  16C    basis set group =>   4
Atom  17C    basis set group =>   4
Atom  18C    basis set group =>   4
Atom  19H    basis set group =>   5
Atom  20C    basis set group =>   4
Atom  21H    basis set group =>   5
Atom  22C    basis set group =>   4
Atom  23H    basis set group =>   5
Atom  24C    basis set group =>   4
Atom  25H    basis set group =>   5
Atom  26C    basis set group =>   4
Atom  27C    basis set group =>   4
Atom  28C    basis set group =>   4
Atom  29C    basis set group =>   4
Atom  30C    basis set group =>   4
Atom  31H    basis set group =>   5
Atom  32C    basis set group =>   4
Atom  33H    basis set group =>   5
Atom  34C    basis set group =>   4
Atom  35H    basis set group =>   5
Atom  36C    basis set group =>   4
Atom  37H    basis set group =>   5
Atom  38C    basis set group =>   4
Atom  39C    basis set group =>   4
Atom  40C    basis set group =>   4
Atom  41C    basis set group =>   4
Atom  42H    basis set group =>   5
Atom  43C    basis set group =>   4
Atom  44H    basis set group =>   5
Atom  45C    basis set group =>   4
Atom  46H    basis set group =>   5
Atom  47C    basis set group =>   4
Atom  48H    basis set group =>   5
Atom  49C    basis set group =>   4
Atom  50C    basis set group =>   4
Atom  51C    basis set group =>   4
Atom  52H    basis set group =>   5
Atom  53C    basis set group =>   4
Atom  54H    basis set group =>   5
Atom  55C    basis set group =>   4
Atom  56H    basis set group =>   5
Atom  57C    basis set group =>   4
Atom  58H    basis set group =>   5
Atom  59C    basis set group =>   4
Atom  60C    basis set group =>   4
Atom  61C    basis set group =>   4
Atom  62C    basis set group =>   4
Atom  63C    basis set group =>   4
Atom  64H    basis set group =>   5
Atom  65C    basis set group =>   4
Atom  66H    basis set group =>   5
Atom  67C    basis set group =>   4
Atom  68H    basis set group =>   5
Atom  69C    basis set group =>   4
Atom  70H    basis set group =>   5
Atom  71C    basis set group =>   4
Atom  72C    basis set group =>   4
Atom  73C    basis set group =>   4
Atom  74C    basis set group =>   4
Atom  75C    basis set group =>   4
Atom  76C    basis set group =>   4
Atom  77H    basis set group =>   5
Atom  78C    basis set group =>   4
Atom  79H    basis set group =>   5
Atom  80C    basis set group =>   4
Atom  81H    basis set group =>   5
Atom  82C    basis set group =>   4
Atom  83C    basis set group =>   4
Atom  84H    basis set group =>   5
Atom  85H    basis set group =>   5
Atom  86H    basis set group =>   5
Atom  87C    basis set group =>   4
Atom  88H    basis set group =>   5
Atom  89H    basis set group =>   5
Atom  90H    basis set group =>   5
Atom  91C    basis set group =>   4
Atom  92C    basis set group =>   4
Atom  93C    basis set group =>   4
Atom  94C    basis set group =>   4
Atom  95H    basis set group =>   5
Atom  96C    basis set group =>   4
Atom  97H    basis set group =>   5
Atom  98C    basis set group =>   4
Atom  99H    basis set group =>   5
Atom 100C    basis set group =>   4
Atom 101C    basis set group =>   4
Atom 102H    basis set group =>   5
Atom 103H    basis set group =>   5
Atom 104H    basis set group =>   5
Atom 105C    basis set group =>   4
Atom 106H    basis set group =>   5
Atom 107H    basis set group =>   5
Atom 108H    basis set group =>   5
-------------------------
ECP PARAMETER INFORMATION
-------------------------

 Group 1, Type Ir ECP Def2-ECP (replacing 60 core electrons, lmax=3)

Atom   0Ir   ECP group =>   1



           ************************************************************
           *        Program running with 8 parallel MPI-processes     *
           *              working on a common directory               *
           ************************************************************
------------------------------------------------------------------------------
                           ORCA GTO INTEGRAL CALCULATION
                           -- RI-GTO INTEGRALS CHOSEN --
------------------------------------------------------------------------------
------------------------------------------------------------------------------
                   ___                                                        
                  /   \      - P O W E R E D   B Y -                         
                 /     \                                                     
                 |  |  |   _    _      __       _____    __    __             
                 |  |  |  | |  | |    /  \     |  _  \  |  |  /  |          
                  \  \/   | |  | |   /    \    | | | |  |  | /  /          
                 / \  \   | |__| |  /  /\  \   | |_| |  |  |/  /          
                |  |  |   |  __  | /  /__\  \  |    /   |      \           
                |  |  |   | |  | | |   __   |  |    \   |  |\   \          
                \     /   | |  | | |  |  |  |  | |\  \  |  | \   \       
                 \___/    |_|  |_| |__|  |__|  |_| \__\ |__|  \__/        
                                                                              
                      - O R C A' S   B I G   F R I E N D -                    
                                      &                                       
                       - I N T E G R A L  F E E D E R -                       
                                                                              
 v1 FN, 2020, v2 2021                                                         
------------------------------------------------------------------------------


Reading SHARK input file Ir_isoCN_5_SOS-wPBEPP86_def2SVP.SHARKINP.tmp ... ok
----------------------
SHARK INTEGRAL PACKAGE
----------------------

Number of atoms                             ...    109
Number of basis functions                   ...   1174
Number of shells                            ...    538
Maximum angular momentum                    ...      3
Integral batch strategy                     ... SHARK/LIBINT Hybrid
RI-J (if used) integral strategy            ... SPLIT-RIJ (Revised 2003 algorithm where possible)
Printlevel                                  ...      1
Contraction scheme used                     ... SEGMENTED contraction
Coulomb Range Separation                    ... NOT USED
Exchange Range Separation                   ... Long Range
   Mu parameter                             ...  0.180000
   Scaling (regular/separated)              ...  0.700000  0.300000
Finite Nucleus Model                        ... NOT USED
Auxiliary Coulomb fitting basis             ... AVAILABLE
   # of basis functions in Aux-J            ...   3789
   # of shells in Aux-J                     ...   1227
   Maximum angular momentum in Aux-J        ...      4
Auxiliary J/K fitting basis                 ... NOT available
Auxiliary Correlation fitting basis         ... AVAILABLE
   # of basis functions in Aux-C            ...   3924
   # of shells in Aux-C                     ...   1348
   Maximum angular momentum in Aux-C        ...      5
Auxiliary 'external' fitting basis          ... NOT available
Integral threshold                          ...     2.500000e-11
Primitive cut-off                           ...     2.500000e-12
Primitive pair pre-selection threshold      ...     2.500000e-12

Calculating pre-screening integrals         ... done (  0.1 sec) Dimension = 538
Organizing shell pair data                  ... done (  0.3 sec)
Shell pair information
Total number of shell pairs                 ...    144991
Shell pairs after pre-screening             ...     73726
Total number of primitive shell pairs       ...    535078
Primitive shell pairs kept                  ...    150707
          la=0 lb=0:  22057 shell pairs
          la=1 lb=0:  27779 shell pairs
          la=1 lb=1:   8876 shell pairs
          la=2 lb=0:   8501 shell pairs
          la=2 lb=1:   5423 shell pairs
          la=2 lb=2:    716 shell pairs
          la=3 lb=0:    202 shell pairs
          la=3 lb=1:    129 shell pairs
          la=3 lb=2:     42 shell pairs
          la=3 lb=3:      1 shell pairs

Calculating one electron integrals          ... done (  0.2 sec)
Calculating ECP integrals                   ... done (  2.3 sec)
Calculating RI/J V-Matrix + Cholesky decomp.... done (  1.1 sec)
Calculating RI/C V-Matrix + Cholesky decomp.... done (  0.8 sec)
Calculating Nuclear repulsion               ... done (  0.0 sec) ENN=  11349.079549761289 Eh

SHARK setup successfully completed in   5.7 seconds

Maximum memory used throughout the entire GTOINT-calculation: 137.2 MB


           ************************************************************
           *        Program running with 8 parallel MPI-processes     *
           *              working on a common directory               *
           ************************************************************
-------------------------------------------------------------------------------
                                 ORCA SCF
-------------------------------------------------------------------------------

------------
SCF SETTINGS
------------
Hamiltonian:
 Density Functional     Method          .... DFT(GTOs)
 Exchange Functional    Exchange        .... LC-PBE
 Correlation Functional Correlation     .... P86
 LDA part of GGA corr.  LDAOpt          .... VWN-5
 Gradients option       PostSCFGGA      .... off
 Hybrid DFT is turned on
   Fraction HF Exchange ScalHFX         ....  0.700000
   Scaling of DF-GGA-X  ScalDFX         ....  0.000000
   Scaling of DF-GGA-C  ScalDFC         ....  0.680000
   Scaling of DF-LDA-C  ScalLDAC        ....  0.680000
   Perturbative correction              ....  0.480000
   Density functional embedding theory  .... OFF
 Long-range corrected/Screened/Range-Separated Hybrid DFT is turned on
   Amount of maximum screened exact exchange              ....  0.300000
   Range separation parameter mu (erf(mu*r12)/r12)        ....  0.180000
 RI-approximation to the Coulomb term is turned on
   Number of AuxJ basis functions       .... 3789
   RIJ-COSX (HFX calculated with COS-X)).... on


General Settings:
 Integral files         IntName         .... Ir_isoCN_5_SOS-wPBEPP86_def2SVP
 Hartree-Fock type      HFTyp           .... RHF
 Total Charge           Charge          ....    1
 Multiplicity           Mult            ....    1
 Number of Electrons    NEL             ....  478
 Basis Dimension        Dim             .... 1174
 Nuclear Repulsion      ENuc            ....  11349.0795497613 Eh

Convergence Acceleration:
 DIIS                   CNVDIIS         .... on
   Start iteration      DIISMaxIt       ....    12
   Startup error        DIISStart       ....  0.200000
   # of expansion vecs  DIISMaxEq       ....     5
   Bias factor          DIISBfac        ....   1.050
   Max. coefficient     DIISMaxC        ....  10.000
 Trust-Rad. Augm. Hess. CNVTRAH         .... auto
   Auto Start mean grad. ratio tolernc. ....  1.125000
   Auto Start start iteration           ....    20
   Auto Start num. interpolation iter.  ....    10
   Max. Number of Micro iterations      ....    16
   Max. Number of Macro iterations      .... Maxiter - #DIIS iter
   Number of Davidson start vectors     ....     2
   Converg. threshold I  (grad. norm)   ....   1.000e-05
   Converg. threshold II (energy diff.) ....   1.000e-08
   Grad. Scal. Fac. for Micro threshold ....   0.100
   Minimum threshold for Micro iter.    ....   0.010
   NR start threshold (gradient norm)   ....   0.001
   Initial trust radius                 ....   0.400
   Minimum AH scaling param. (alpha)    ....   1.000
   Maximum AH scaling param. (alpha)    .... 1000.000
   Orbital update algorithm             .... Taylor
   White noise on init. David. guess    .... on
   Maximum white noise                  ....   0.010
   Quad. conv. algorithm                .... NR
 SOSCF                  CNVSOSCF        .... off
 Level Shifting         CNVShift        .... on
   Level shift para.    LevelShift      ....    0.2500
   Turn off err/grad.   ShiftErr        ....    0.0010
 Zerner damping         CNVZerner       .... off
 Static damping         CNVDamp         .... on
   Fraction old density DampFac         ....    0.7000
   Max. Damping (<1)    DampMax         ....    0.9800
   Min. Damping (>=0)   DampMin         ....    0.0000
   Turn off err/grad.   DampErr         ....    0.1000
 Fernandez-Rico         CNVRico         .... off

SCF Procedure:
 Maximum # iterations   MaxIter         ....   125
 SCF integral mode      SCFMode         .... Direct
   Integral package                     .... SHARK and LIBINT hybrid scheme
 Reset frequency        DirectResetFreq ....    20
 Integral Threshold     Thresh          ....  2.500e-11 Eh
 Primitive CutOff       TCut            ....  2.500e-12 Eh

Convergence Tolerance:
 Convergence Check Mode ConvCheckMode   .... Total+1el-Energy
 Convergence forced     ConvForced      .... 1
 Energy Change          TolE            ....  1.000e-08 Eh
 1-El. energy change                    ....  1.000e-05 Eh
 DIIS Error             TolErr          ....  5.000e-07


Diagonalization of the overlap matrix:
Smallest eigenvalue                        ... 2.046e-04
Time for diagonalization                   ...    0.232 sec
Threshold for overlap eigenvalues          ... 1.000e-08
Number of eigenvalues below threshold      ... 0
Time for construction of square roots      ...    0.142 sec
Total time needed                          ...    0.378 sec

Time for model grid setup =    1.463 sec

------------------------------
INITIAL GUESS: MODEL POTENTIAL
------------------------------
Loading Hartree-Fock densities                     ... done
  calling /project/ligandum/orca_504_openmpi411/orca Ir_isoCN_5_SOS-wPBEPP86_def2SVP_atom77.inp > Ir_isoCN_5_SOS-wPBEPP86_def2SVP_atom77.out in order to generate an atomic fitting density for atom 0 (Ir with ECP) on-the-fly... 
    atom 0 (Ir), assumed electronic state with S=4: 1s2 2s2 2p6 3s2 3p6 4s2 3d10 4p6 5s2 4d10 5p6 6s2 4f14 5d7           ... done
Calculating cut-offs                               ... done
Initializing the effective Hamiltonian             ... done
Setting up the integral package (SHARK)            ... done
Starting the Coulomb interaction                   ... done (   1.7 sec)
Reading the grid                                   ... done
Mapping shells                                     ... done
Starting the XC term evaluation                    ... done (   0.5 sec)
  promolecular density results
     # of electrons  =    538.984886119
     EX              =   -727.240821280
     EC              =    -10.549512411
     EX+EC           =   -737.790333691
Transforming the Hamiltonian                       ... done (   0.1 sec)
Diagonalizing the Hamiltonian                      ... done (   0.2 sec)
Back transforming the eigenvectors                 ... done (   0.0 sec)
Now organizing SCF variables                       ... done
                      ------------------
                      INITIAL GUESS DONE (   8.6 sec)
                      ------------------
-------------------
DFT GRID GENERATION
-------------------

General Integration Accuracy     IntAcc      ... 4.388
Radial Grid Type                 RadialGrid  ... OptM3 with GC (2021)
Angular Grid (max. ang.)         AngularGrid ... 4 (Lebedev-302)
Angular grid pruning method      GridPruning ... 4 (adaptive)
Weight generation scheme         WeightScheme... Becke
Basis function cutoff            BFCut       ... 1.0000e-11
Integration weight cutoff        WCut        ... 1.0000e-14
Angular grids for H and He will be reduced by one unit
Partially contracted basis set               ... off
Rotationally invariant grid construction     ... off

Total number of grid points                  ...   534022
Total number of batches                      ...     8405
Average number of points per batch           ...       63
Average number of grid points per atom       ...     4899
Time for grid setup =    5.403 sec

--------------------
COSX GRID GENERATION
--------------------

GRIDX 1
-------
General Integration Accuracy     IntAcc      ... 3.816
Radial Grid Type                 RadialGrid  ... OptM3 with GC (2021)
Angular Grid (max. ang.)         AngularGrid ... 1 (Lebedev-50)
Angular grid pruning method      GridPruning ... 4 (adaptive)
Weight generation scheme         WeightScheme... Becke
Basis function cutoff            BFCut       ... 1.0000e-11
Integration weight cutoff        WCut        ... 1.0000e-14
Angular grids for H and He will be reduced by one unit
Partially contracted basis set               ... on
Rotationally invariant grid construction     ... off

Total number of grid points                  ...    67090
Total number of batches                      ...     1093
Average number of points per batch           ...       61
Average number of grid points per atom       ...      616
UseSFitting                                  ... on

GRIDX 2
-------
General Integration Accuracy     IntAcc      ... 4.020
Radial Grid Type                 RadialGrid  ... OptM3 with GC (2021)
Angular Grid (max. ang.)         AngularGrid ... 2 (Lebedev-110)
Angular grid pruning method      GridPruning ... 4 (adaptive)
Weight generation scheme         WeightScheme... Becke
Basis function cutoff            BFCut       ... 1.0000e-11
Integration weight cutoff        WCut        ... 1.0000e-14
Angular grids for H and He will be reduced by one unit
Partially contracted basis set               ... on
Rotationally invariant grid construction     ... off

Total number of grid points                  ...   145372
Total number of batches                      ...     2324
Average number of points per batch           ...       62
Average number of grid points per atom       ...     1334
UseSFitting                                  ... on

GRIDX 3
-------
General Integration Accuracy     IntAcc      ... 4.338
Radial Grid Type                 RadialGrid  ... OptM3 with GC (2021)
Angular Grid (max. ang.)         AngularGrid ... 3 (Lebedev-194)
Angular grid pruning method      GridPruning ... 4 (adaptive)
Weight generation scheme         WeightScheme... Becke
Basis function cutoff            BFCut       ... 1.0000e-11
Integration weight cutoff        WCut        ... 1.0000e-14
Angular grids for H and He will be reduced by one unit
Partially contracted basis set               ... on
Rotationally invariant grid construction     ... off

Total number of grid points                  ...   315661
Total number of batches                      ...     4990
Average number of points per batch           ...       63
Average number of grid points per atom       ...     2896
UseSFitting                                  ... on

Time for X-Grid setup             =    6.099 sec


--------------------
CPCM SOLVATION MODEL
--------------------
CPCM parameters:
  Epsilon                                         ...      35.6880
  Refrac                                          ...       1.3442
  Rsolv                                           ...       1.3000
  Surface type                                    ... GAUSSIAN VDW
  Epsilon function type                           ...         CPCM
Solvent:                                     ... ACETONITRILE
SMD-CDS solvent descriptors:
  Soln                                       ...    1.3442
  Soln25                                     ...    1.3416
  Sola                                       ...    0.0700
  Solb                                       ...    0.3200
  Solg                                       ...   41.2500
  Solc                                       ...    0.0000
  Solh                                       ...    0.0000
Radii:
 Radius for Ir used is    3.8172 Bohr (=   2.0200 Ang.)
 Radius for S  used is    4.7054 Bohr (=   2.4900 Ang.)
 Radius for N  used is    3.5716 Bohr (=   1.8900 Ang.)
 Radius for C  used is    3.4960 Bohr (=   1.8500 Ang.)
 Radius for H  used is    2.2677 Bohr (=   1.2000 Ang.)
Calculating surface                               ...        done! (  0.0s)
GEPOL surface points                              ...         5975
GEPOL Volume                                      ...    6268.9545
GEPOL Surface-area                                ...    3108.1183
Calculating surface distance matrix               ...        done! (  0.2s)
Performing Cholesky decomposition & store         ...        done! (  1.3s)
Overall time for CPCM initialization              ...                 1.5s
--------------
SCF ITERATIONS
--------------
ITER       Energy         Delta-E        Max-DP      RMS-DP      [F,P]     Damp
               ***  Starting incremental Fock matrix formation  ***
  0  -3419.8744077950   0.000000000000 0.20579515  0.00128285  0.3921793 0.7000
  1  -3420.3729372570  -0.498529462017 0.17778604  0.00097967  0.2843209 0.7000
  2  -3420.6648173777  -0.291880120734 0.14297418  0.00067922  0.2042313 0.7000
                               ***Turning on DIIS***
  3  -3420.8493601363  -0.184542758545 0.10790915  0.00047310  0.1450798 0.7000
  4  -3420.9753325371  -0.125972400849 0.08022228  0.00033976  0.1022770 0.7000
  5  -3421.0639043547  -0.088571817612 0.18896873  0.00083478  0.0716582 0.0000
  6  -3421.2767816396  -0.212877284855 0.01335259  0.00007166  0.0063596 0.0000
  7  -3421.2784093567  -0.001627717118 0.00867288  0.00004404  0.0034314 0.0000
  8  -3421.2790747929  -0.000665436174 0.00571677  0.00002805  0.0020031 0.0000
  9  -3421.2793424217  -0.000267628804 0.00439122  0.00002749  0.0007958 0.0000
               *** Restarting incremental Fock matrix formation ***
                                   *** Resetting DIIS ***
 10  -3421.2794688146  -0.000126392877 0.00155422  0.00002302  0.0003246 0.0000
 11  -3421.2794852738  -0.000016459255 0.00039125  0.00000476  0.0003411 0.0000
 12  -3421.2794899009  -0.000004627102 0.00032862  0.00000471  0.0001797 0.0000
 13  -3421.2794933713  -0.000003470334 0.00023308  0.00000240  0.0000904 0.0000
 14  -3421.2794942388  -0.000000867534 0.00014121  0.00000101  0.0000870 0.0000
 15  -3421.2794942973  -0.000000058508 0.00006084  0.00000035  0.0000448 0.0000
 16  -3421.2794941913   0.000000105984 0.00002196  0.00000022  0.0000149 0.0000
 17  -3421.2794941292   0.000000062109 0.00000741  0.00000009  0.0000036 0.0000
 18  -3421.2794940107   0.000000118509 0.00000443  0.00000005  0.0000030 0.0000
 19  -3421.2794939809   0.000000029831 0.00000348  0.00000004  0.0000012 0.0000
                            ***DIIS convergence achieved***

               *****************************************************
               *                     SUCCESS                       *
               *           SCF CONVERGED AFTER  20 CYCLES          *
               *****************************************************

Old exchange energy                            =   -301.980915709 Eh
New exchange energy                            =   -301.981429216 Eh
Exchange energy change after final integration =     -0.000513507 Eh
Total energy after final integration           =  -3421.280007521 Eh
Final COS-X integration done in                =   174.505 sec

SMD CDS free energy correction energy :               -13.26021     Kcal/mol
[...]
   227a -> 247a  :     0.013393 
   228a -> 240a  :     0.034417 
   231a -> 239a  :     0.037666 
   233a -> 242a  :     0.011527 
   234a -> 240a  :     0.045894 
   237a -> 244a  :     0.013049 
   237a -> 246a  :     0.012913 
   237a -> 248a  :     0.044693 
   238a -> 242a  :     0.051108 
   238a -> 243a  :     0.027555 
   238a -> 245a  :     0.064238 
   238a -> 247a  :     0.021876 
   238a -> 250a  :     0.010954 
   238a -> 251a  :     0.016986 

STATE 38:  E=   0.183063 au      4.981 eV    40177.6 cm**-1 <S**2> =   0.000000
   217a -> 239a  :     0.017319 
   218a -> 240a  :     0.083811 
   219a -> 239a  :     0.018266 
   220a -> 240a  :     0.014347 
   223a -> 239a  :     0.010723 
   223a -> 245a  :     0.012141 
   224a -> 240a  :     0.041905 
   225a -> 239a  :     0.019557 
   226a -> 240a  :     0.040039 
   226a -> 241a  :     0.013289 
   227a -> 239a  :     0.014448 
   227a -> 242a  :     0.022245 
   228a -> 240a  :     0.041694 
   231a -> 239a  :     0.024437 
   232a -> 240a  :     0.091178 
   232a -> 241a  :     0.011923 
   233a -> 239a  :     0.037275 
   234a -> 240a  :     0.093865 
   234a -> 246a  :     0.016181 
   235a -> 245a  :     0.010782 
   237a -> 246a  :     0.012512 
   238a -> 242a  :     0.046552 
   238a -> 245a  :     0.036307 

STATE 39:  E=   0.194963 au      5.305 eV    42789.5 cm**-1 <S**2> =   0.000000
   224a -> 243a  :     0.010496 
   235a -> 259a  :     0.022634 
   235a -> 262a  :     0.014511 
   236a -> 245a  :     0.016578 
   236a -> 256a  :     0.012499 
   236a -> 258a  :     0.024755 
   236a -> 261a  :     0.012642 
   237a -> 242a  :     0.097880 
   237a -> 243a  :     0.150495 
   237a -> 256a  :     0.015658 
   237a -> 261a  :     0.043028 
   238a -> 241a  :     0.026683 
   238a -> 244a  :     0.165900 
   238a -> 249a  :     0.029414 
   238a -> 253a  :     0.015915 
   238a -> 259a  :     0.024010 
   238a -> 262a  :     0.023102 

STATE 40:  E=   0.199915 au      5.440 eV    43876.2 cm**-1 <S**2> =   0.000000
   223a -> 239a  :     0.070192 
   223a -> 240a  :     0.029930 
   224a -> 239a  :     0.036210 
   224a -> 240a  :     0.012393 
   231a -> 240a  :     0.018733 
   232a -> 240a  :     0.011143 
   233a -> 239a  :     0.013566 
   234a -> 240a  :     0.018534 
   235a -> 247a  :     0.028162 
   235a -> 256a  :     0.013448 
   235a -> 258a  :     0.012634 
   236a -> 247a  :     0.014413 
   236a -> 248a  :     0.015138 
   236a -> 259a  :     0.010436 
   236a -> 262a  :     0.019806 
   237a -> 245a  :     0.022471 
   237a -> 259a  :     0.010359 
   237a -> 262a  :     0.020136 
   238a -> 243a  :     0.016048 
   238a -> 245a  :     0.026089 
   238a -> 246a  :     0.023222 
   238a -> 247a  :     0.014616 
   238a -> 256a  :     0.011449 
   238a -> 258a  :     0.021949 
   238a -> 261a  :     0.026023 


-------------------------
TD-DFT-EXCITATION SPECTRA
-------------------------

Center of mass = (  0.0011, -0.0504, -0.0073)
Calculating the Dipole integrals                  ... done
Transforming integrals                            ... done
Calculating the Linear Momentum integrals         ... done
Transforming integrals                            ... done
Calculating angular momentum integrals            ... done
Transforming integrals                            ... done

-----------------------------------------------------------------------------
         ABSORPTION SPECTRUM VIA TRANSITION ELECTRIC DIPOLE MOMENTS
-----------------------------------------------------------------------------
State   Energy    Wavelength  fosc         T2        TX        TY        TZ  
        (cm-1)      (nm)                 (au**2)    (au)      (au)      (au) 
-----------------------------------------------------------------------------
   1   23068.9    433.5   0.135157112   1.92880   0.17691   1.37537   0.07659
   2   23443.8    426.6   0.638673081   8.96863  -2.99025  -0.01971   0.16322
   3   28314.6    353.2   0.005590545   0.06500   0.25372   0.01716   0.01823
   4   28308.4    353.3   0.083854971   0.97519  -0.02882   0.98464   0.06954
   5   29250.6    341.9   0.137381167   1.54621   0.08402  -1.22709  -0.18277
   6   29025.5    344.5   0.129185630   1.46525   0.46375   0.20794  -1.09861
   7   28209.3    354.5   0.028207696   0.32919   0.06732   0.04891   0.56769
   8   29271.7    341.6   0.037520290   0.42198   0.01520  -0.64939   0.00611
   9   33207.9    301.1   0.299029695   2.96448   1.70794   0.07294  -0.20521
  10   33124.4    301.9   0.016849101   0.16746  -0.00361   0.40745   0.03783
  11   38580.6    259.2   0.000889655   0.00759   0.01611  -0.08562   0.00121
  12   38886.8    257.2   0.004945009   0.04186  -0.10222  -0.00307   0.17722
  13   35896.4    278.6   0.733564834   6.72764  -2.26073   0.02929   1.27118
  14   35980.6    277.9   0.319861698   2.92664   0.20225   1.69868   0.01478
  15   41232.9    242.5   0.476048796   3.80087   1.00997  -0.17541   1.65833
  16   40198.9    248.8   0.042251902   0.34603   0.02322   0.58121   0.08762
  17   35977.8    277.9   0.045857218   0.41961  -0.42319   0.05172  -0.48770
  18   36197.7    276.3   0.003370355   0.03065  -0.03267  -0.02893  -0.16955
  19   37756.0    264.9   0.084511805   0.73690  -0.07517   0.00179  -0.85513
  20   40726.7    245.5   0.017570080   0.14203   0.00406   0.33473  -0.17311
  21   39040.3    256.1   0.982848211   8.28799   0.08726  -2.86836  -0.22991
  22   37282.2    268.2   0.009317301   0.08227  -0.28514   0.02913  -0.01094
  23   37137.8    269.3   0.019358736   0.17161   0.00176   0.41379   0.01955
  24   38435.4    260.2   0.052208445   0.44718   0.39200  -0.03898   0.54037
  25   39201.0    255.1   0.001733512   0.01456  -0.03018   0.11676  -0.00381
  26   40238.7    248.5   0.171459010   1.40279   0.18629  -1.16548  -0.09870
  27   40057.7    249.6   0.418086357   3.43602   1.80935   0.20381  -0.34747
  28   39520.4    253.0   0.038015569   0.31668   0.52898  -0.01073  -0.19168
  29   39164.0    255.3   0.063833042   0.53658  -0.36112   0.00617  -0.63729
  30   39597.0    252.5   0.001879434   0.01563  -0.04614  -0.11105  -0.03413
  31   40031.6    249.8   0.013746812   0.11305  -0.02357   0.33152   0.05087
  32   38062.1    262.7   0.014150793   0.12240   0.34670   0.04682  -0.00185
  33   41341.6    241.9   0.049302798   0.39261  -0.38784   0.01222  -0.49198
  34   38438.0    260.2   0.006057047   0.05188  -0.07669  -0.00131  -0.21446
  35   41255.1    242.4   0.061329735   0.48941  -0.17287   0.08573  -0.67244
  36   40657.1    246.0   0.003198948   0.02590   0.00231  -0.13796  -0.08285
  37   41337.8    241.9   0.002075223   0.01653   0.03576  -0.12204   0.01884
  38   40177.6    248.9   0.086763627   0.71093  -0.02934   0.83885   0.08001
  39   42789.5    233.7   0.011740047   0.09032   0.21736  -0.06166   0.19818
  40   43876.2    227.9   0.003460568   0.02597   0.06761  -0.13642  -0.05277

-----------------------------------------------------------------------------
         ABSORPTION SPECTRUM VIA TRANSITION VELOCITY DIPOLE MOMENTS
-----------------------------------------------------------------------------
State   Energy    Wavelength   fosc        P2         PX        PY        PZ  
        (cm-1)      (nm)                 (au**2)     (au)      (au)      (au) 
-----------------------------------------------------------------------------
   1   23068.9    433.5   0.171702064   0.02707  -0.02144  -0.16288  -0.00902
   2   23443.8    426.6   0.840840649   0.13473   0.36646   0.00267  -0.02067
   3   28314.6    353.2   0.007643051   0.00148  -0.03825  -0.00244  -0.00315
   4   28308.4    353.3   0.128578209   0.02488   0.00464  -0.15726  -0.01110
   5   29250.6    341.9   0.189623579   0.03791  -0.01341   0.19207   0.02896
   6   29025.5    344.5   0.192754052   0.03824  -0.07558  -0.03311   0.17728
   7   28209.3    354.5   0.046887146   0.00904  -0.01141  -0.00821  -0.09403
   8   29271.7    341.6   0.060675032   0.01214  -0.00251   0.11014  -0.00090
   9   33207.9    301.1   0.347189775   0.07880  -0.27832  -0.01204   0.03451
  10   33124.4    301.9   0.024063363   0.00545   0.00080  -0.07350  -0.00674
  11   38580.6    259.2   0.000474506   0.00013  -0.00278   0.01082  -0.00062
  12   38886.8    257.2   0.004843584   0.00129   0.01282   0.00064  -0.03350
  13   35896.4    278.6   0.983084302   0.24118   0.43048  -0.00480  -0.23632
  14   35980.6    277.9   0.408020150   0.10034  -0.03900  -0.31434  -0.00252
  15   41232.9    242.5   0.471369679   0.13284  -0.18827   0.03294  -0.31033
  16   40198.9    248.8   0.045005832   0.01236  -0.00393  -0.10986  -0.01675
  17   35977.8    277.9   0.068293187   0.01679   0.08300  -0.00992   0.09902
  18   36197.7    276.3   0.004709427   0.00117   0.00872  -0.00036   0.03300
  19   37756.0    264.9   0.105254915   0.02716   0.02520   0.00293   0.16284
  20   40726.7    245.5   0.022618042   0.00630   0.00094  -0.07278   0.03158
  21   39040.3    256.1   1.173421257   0.31309  -0.01708   0.55751   0.04449
  22   37282.2    268.2   0.014295444   0.00364   0.05978  -0.00557   0.00621
  23   37137.8    269.3   0.024572382   0.00624  -0.00084  -0.07886  -0.00419
  24   38435.4    260.2   0.067334253   0.01769  -0.07799   0.00768  -0.10746
  25   39201.0    255.1   0.002101359   0.00056   0.00603  -0.02292   0.00117
  26   40238.7    248.5   0.225384183   0.06198  -0.03838   0.24511   0.02073
  27   40057.7    249.6   0.537073789   0.14704  -0.37431  -0.04247   0.07160
  28   39520.4    253.0   0.055357786   0.01495  -0.11623   0.00209   0.03794
  29   39164.0    255.3   0.093159602   0.02494   0.06996  -0.00206   0.14155
  30   39597.0    252.5   0.002559892   0.00069   0.00996   0.02323   0.00734
  31   40031.6    249.8   0.020360803   0.00557   0.00552  -0.07362  -0.01100
  32   38062.1    262.7   0.025667987   0.00668  -0.08108  -0.01000  -0.00185
  33   41341.6    241.9   0.066893534   0.01890   0.08962  -0.00208   0.10423
  34   38438.0    260.2   0.008853538   0.00233   0.01759  -0.00052   0.04490
  35   41255.1    242.4   0.077704617   0.02191   0.03553  -0.01840   0.14251
  36   40657.1    246.0   0.004894084   0.00136  -0.00098   0.03230   0.01777
  37   41337.8    241.9   0.002695884   0.00076  -0.00765   0.02619  -0.00416
  38   40177.6    248.9   0.121262091   0.03330   0.00619  -0.18156  -0.01722
  39   42789.5    233.7   0.014762926   0.00432  -0.04693   0.01320  -0.04405
  40   43876.2    227.9   0.003400443   0.00102  -0.01776   0.02355   0.01225

-------------------------------------------------------------------
                             CD SPECTRUM
-------------------------------------------------------------------
State  Energy     Wavelength     R         MX        MY        MZ   
       (cm-1)       (nm)     (1e40*cgs)   (au)      (au)      (au)  
-------------------------------------------------------------------
   1   23068.9    433.5    -690.49122   0.08372  -1.07720   0.02774
   2   23443.8    426.6    602.88687  -0.50798   0.02295  -1.46883
   3   28314.6    353.2     30.99947   0.23394  -0.01716   0.36708
   4   28308.4    353.3     17.63749   0.01012   0.03843  -0.00191
   5   29250.6    341.9     89.37468  -0.00282  -0.16035   0.03805
   6   29025.5    344.5    -144.65793  -0.05448  -0.00836   0.25472
   7   28209.3    354.5     96.52931   0.10806   0.00433   0.34749
   8   29271.7    341.6     85.89970   0.01375  -0.28015   0.01096
   9   33207.9    301.1    -103.05752  -0.17085   0.00015  -0.35669
  10   33124.4    301.9      7.62311   0.00043   0.03947   0.00240
  11   38580.6    259.2    -22.22137  -0.04362   0.54238   0.00500
  12   38886.8    257.2    -26.54675  -0.38761  -0.00766  -0.54145
  13   35896.4    278.6    -125.44884   0.68232  -0.02797   1.00480
  14   35980.6    277.9    198.48656  -0.06321   0.25618  -0.09247
  15   41232.9    242.5    -186.08501  -0.17135   0.01831  -0.13172
  16   40198.9    248.8    -118.41509   0.03538  -0.41578  -0.11799
  17   35977.8    277.9    -17.99777  -1.12747  -0.10424   1.04554
  18   36197.7    276.3      9.16500  -0.45701  -0.05300  -0.01756
  19   37756.0    264.9    507.70122  -0.84400   0.10812  -1.18492
  20   40726.7    245.5      8.16786  -0.06645  -0.11851  -0.33080
  21   39040.3    256.1    -269.69460  -0.01378   0.19905  -0.00043
  22   37282.2    268.2     62.04927  -0.44734   0.00761  -0.35075
  23   37137.8    269.3     23.01199   0.01071   0.11759   0.00691
  24   38435.4    260.2    270.96685   0.47870  -0.03622   0.71375
  25   39201.0    255.1     -2.25775  -0.02617  -0.04858  -0.02452
  26   40238.7    248.5    -65.92469  -0.02762   0.11176   0.04492
  27   40057.7    249.6    -148.73156  -0.14681  -0.03005   0.12584
  28   39520.4    253.0     96.07830   0.33902   0.02112  -0.12879
  29   39164.0    255.3     37.86223  -0.12117   0.01274  -0.05723
  30   39597.0    252.5      9.20586  -0.02915  -0.15688  -0.02227
  31   40031.6    249.8     -1.90546   0.02937  -0.01377   0.02391
  32   38062.1    262.7    -32.39095  -0.20562   0.03319  -0.55593
  33   41341.6    241.9    -76.65848   0.26540   0.01873   0.12175
  34   38438.0    260.2      8.26764   0.05093  -0.00813  -0.09993
  35   41255.1    242.4    -136.02427  -0.05468  -0.02953   0.43936
  36   40657.1    246.0     -4.97037  -0.00528   0.05727   0.03174
  37   41337.8    241.9    -17.38508  -0.00717   0.30044   0.00243
  38   40177.6    248.9    -101.43531   0.02905  -0.25588   0.00432
  39   42789.5    233.7     22.54941   0.21882   0.00453   0.00275
  40   43876.2    227.9     14.57893   0.17368  -0.17111   0.07885

-------------------------------------------------------------------
         CD SPECTRUM VIA TRANSITION VELOCITY DIPOLE MOMENTS        
-------------------------------------------------------------------
State  Energy     Wavelength     R         MX        MY        MZ   
       (cm-1)       (nm)     (1e40*cgs)   (au)      (au)      (au)  
-------------------------------------------------------------------
   1   23068.9    433.5    -777.79985   0.08372  -1.07720   0.02774
   2   23443.8    426.6    687.31928  -0.50798   0.02295  -1.46883
   3   28314.6    353.2     36.77145   0.23394  -0.01716   0.36708
   4   28308.4    353.3     21.83896   0.01012   0.03843  -0.00191
   5   29250.6    341.9    104.91447  -0.00282  -0.16035   0.03805
   6   29025.5    344.5    -176.63952  -0.05448  -0.00836   0.25472
   7   28209.3    354.5    124.50360   0.10806   0.00433   0.34749
   8   29271.7    341.6    109.22959   0.01375  -0.28015   0.01096
   9   33207.9    301.1    -109.79783  -0.17085   0.00015  -0.35669
  10   33124.4    301.9      9.11003   0.00043   0.03947   0.00240
  11   38580.6    259.2    -16.05176  -0.04362   0.54238   0.00500
  12   38886.8    257.2    -35.03394  -0.38761  -0.00766  -0.54145
  13   35896.4    278.6    -162.61287   0.68232  -0.02797   1.00480
  14   35980.6    277.9    223.81498  -0.06321   0.25618  -0.09247
  15   41232.9    242.5    -185.04585  -0.17135   0.01831  -0.13172
  16   40198.9    248.8    -122.29938   0.03538  -0.41578  -0.11799
  17   35977.8    277.9    -31.61417  -1.12747  -0.10424   1.04554
  18   36197.7    276.3     12.99554  -0.45701  -0.05300  -0.01756
  19   37756.0    264.9    586.21598  -0.84400   0.10812  -1.18492
  20   40726.7    245.5      4.78835  -0.06645  -0.11851  -0.33080
  21   39040.3    256.1    -294.69462  -0.01378   0.19905  -0.00043
  22   37282.2    268.2     80.37131  -0.44734   0.00761  -0.35075
  23   37137.8    269.3     25.94138   0.01071   0.11759   0.00691
  24   38435.4    260.2    307.72576   0.47870  -0.03622   0.71375
  25   39201.0    255.1     -2.44674  -0.02617  -0.04858  -0.02452
  26   40238.7    248.5    -75.56280  -0.02762   0.11176   0.04492
  27   40057.7    249.6    -168.51179  -0.14681  -0.03005   0.12584
  28   39520.4    253.0    115.84062   0.33902   0.02112  -0.12879
  29   39164.0    255.3     43.86918  -0.12117   0.01274  -0.05723
  30   39597.0    252.5     10.70932  -0.02915  -0.15688  -0.02227
  31   40031.6    249.8     -2.36003   0.02937  -0.01377   0.02391
  32   38062.1    262.7    -47.21887  -0.20562   0.03319  -0.55593
  33   41341.6    241.9    -91.19575   0.26540   0.01873   0.12175
  34   38438.0    260.2      9.65603   0.05093  -0.00813  -0.09993
  35   41255.1    242.4    -153.52907  -0.05468  -0.02953   0.43936
  36   40657.1    246.0     -6.15606  -0.00528   0.05727   0.03174
  37   41337.8    241.9    -19.80635  -0.00717   0.30044   0.00243
  38   40177.6    248.9    -119.91655   0.02905  -0.25588   0.00432
  39   42789.5    233.7     24.98312   0.21882   0.00453   0.00275
  40   43876.2    227.9     14.49689   0.17368  -0.17111   0.07885

Total run time:    43092.968 sec

           *** ORCA-CIS/TD-DFT FINISHED WITHOUT ERROR ***

Maximum memory used throughout the entire CIS-calculation: 8703.9 MB

-----------------------
CIS/TD-DFT TOTAL ENERGY
-----------------------

    E(SCF)  =  -3421.301139008 Eh
    DE(CIS) =      0.105109735 Eh (Root  1)
    ----------------------------- ---------
    E(tot)  =  -3421.196029272 Eh


-------------------------   --------------------
FINAL SINGLE POINT ENERGY     -3421.196029272432
-------------------------   --------------------


                            ***************************************
                            *     ORCA property calculations      *
                            ***************************************


  WARNING: The energy has been calculated at the MP2 level but the densities
           used in the property calculations are still SCF densities
           MP2 response densities have not been calculated 
           use %mp2 Density relaxed end
           or  %mp2 Density unrelaxed end

                                    ---------------------
                                    Active property flags
                                    ---------------------
   (+) Dipole Moment


------------------------------------------------------------------------------
                       ORCA ELECTRIC PROPERTIES CALCULATION
------------------------------------------------------------------------------

Dipole Moment Calculation                       ... on
Quadrupole Moment Calculation                   ... off
Polarizability Calculation                      ... off
GBWName                                         ... Ir_isoCN_5_SOS-wPBEPP86_def2SVP.gbw
Electron density                                ... Ir_isoCN_5_SOS-wPBEPP86_def2SVP.scfp
The origin for moment calculation is the CENTER OF MASS  = ( 0.001111, -0.050418 -0.007284)

-------------
DIPOLE MOMENT
-------------
                                X             Y             Z
Electronic contribution:     -0.45722     -10.54304      -5.65479
Nuclear contribution   :      0.36946      13.49996       5.95783
                        -----------------------------------------
Total Dipole Moment    :     -0.08776       2.95692       0.30304
                        -----------------------------------------
Magnitude (a.u.)       :      2.97370
Magnitude (Debye)      :      7.55854



--------------------
Rotational spectrum 
--------------------
 
Rotational constants in cm-1:     0.001223     0.001140     0.001100 
Rotational constants in MHz :    36.666721    34.176548    32.965387 

 Dipole components along the rotational axes: 
x,y,z [a.u.] :    -0.086939    -2.953650     0.333592 
x,y,z [Debye]:    -0.220982    -7.507581     0.847922 

 

Timings for individual modules:

Sum of individual times         ...    46321.774 sec (= 772.030 min)
GTO integral calculation        ...        6.418 sec (=   0.107 min)   0.0 %
SCF iterations                  ...     1306.204 sec (=  21.770 min)   2.8 %
MP2 module                      ...     1914.212 sec (=  31.904 min)   4.1 %
CIS module                      ...    43094.941 sec (= 718.249 min)  93.0 %
                             ****ORCA TERMINATED NORMALLY****
TOTAL RUN TIME: 0 days 12 hours 52 minutes 7 seconds 195 msec
