 Entering Gaussian System, Link 0=g16
 Input=/home/png4rjv/photocat/TMPC_bench/gaussian/B3LYP-D3/part2/Ir_isoCN_5_B3LYP-D3_def2SVP.gjf
 Output=/home/png4rjv/photocat/TMPC_bench/gaussian/B3LYP-D3/part2/Ir_isoCN_5_B3LYP-D3_def2SVP.log
 Initial command:
 /opt/software/packages/g16/l1.exe "/scratch/ligandum/png4rjv/3096346/Gau-81685.inp" -scrdir="/scratch/ligandum/png4rjv/3096346/"
 Default is to use a total of  12 processors:
                               12 via shared-memory
                                1 via Linda
 Entering Link 1 = /opt/software/packages/g16/l1.exe PID=     81688.
  
 Copyright (c) 1988-2021, Gaussian, Inc.  All Rights Reserved.
  
 This is part of the Gaussian(R) 16 program.  It is based on
 the Gaussian(R) 09 system (copyright 2009, Gaussian, Inc.),
 the Gaussian(R) 03 system (copyright 2003, Gaussian, Inc.),
 the Gaussian(R) 98 system (copyright 1998, Gaussian, Inc.),
 the Gaussian(R) 94 system (copyright 1995, Gaussian, Inc.),
 the Gaussian 92(TM) system (copyright 1992, Gaussian, Inc.),
 the Gaussian 90(TM) system (copyright 1990, Gaussian, Inc.),
 the Gaussian 88(TM) system (copyright 1988, Gaussian, Inc.),
 the Gaussian 86(TM) system (copyright 1986, Carnegie Mellon
 University), and the Gaussian 82(TM) system (copyright 1983,
 Carnegie Mellon University). Gaussian is a federally registered
 trademark of Gaussian, Inc.
  
 This software contains proprietary and confidential information,
 including trade secrets, belonging to Gaussian, Inc.
  
 This software is provided under written license and may be
 used, copied, transmitted, or stored only in accord with that
 written license.
  
 The following legend is applicable only to US Government
 contracts under FAR:
  
                    RESTRICTED RIGHTS LEGEND
  
 Use, reproduction and disclosure by the US Government is
 subject to restrictions as set forth in subparagraphs (a)
 and (c) of the Commercial Computer Software - Restricted
 Rights clause in FAR 52.227-19.
  
 Gaussian, Inc.
 340 Quinnipiac St., Bldg. 40, Wallingford CT 06492
  
  
 ---------------------------------------------------------------
 Warning -- This program may not be used in any manner that
 competes with the business of Gaussian, Inc. or will provide
 assistance to any competitor of Gaussian, Inc.  The licensee
 of this program is prohibited from giving any competitor of
 Gaussian, Inc. access to this program.  By using this program,
 the user acknowledges that Gaussian, Inc. is engaged in the
 business of creating and licensing software in the field of
 computational chemistry and represents and warrants to the
 licensee that it is not a competitor of Gaussian, Inc. and that
 it will not use this program in any manner prohibited above.
 ---------------------------------------------------------------
  

 Cite this work as:
 Gaussian 16, Revision C.02,
 M. J. Frisch, G. W. Trucks, H. B. Schlegel, G. E. Scuseria, 
 M. A. Robb, J. R. Cheeseman, G. Scalmani, V. Barone, 
 G. A. Petersson, H. Nakatsuji, X. Li, M. Caricato, A. V. Marenich, 
 J. Bloino, B. G. Janesko, R. Gomperts, B. Mennucci, H. P. Hratchian, 
 J. V. Ortiz, A. F. Izmaylov, J. L. Sonnenberg, D. Williams-Young, 
 F. Ding, F. Lipparini, F. Egidi, J. Goings, B. Peng, A. Petrone, 
 T. Henderson, D. Ranasinghe, V. G. Zakrzewski, J. Gao, N. Rega, 
 G. Zheng, W. Liang, M. Hada, M. Ehara, K. Toyota, R. Fukuda, 
 J. Hasegawa, M. Ishida, T. Nakajima, Y. Honda, O. Kitao, H. Nakai, 
 T. Vreven, K. Throssell, J. A. Montgomery, Jr., J. E. Peralta, 
 F. Ogliaro, M. J. Bearpark, J. J. Heyd, E. N. Brothers, K. N. Kudin, 
 V. N. Staroverov, T. A. Keith, R. Kobayashi, J. Normand, 
 K. Raghavachari, A. P. Rendell, J. C. Burant, S. S. Iyengar, 
 J. Tomasi, M. Cossi, J. M. Millam, M. Klene, C. Adamo, R. Cammi, 
 J. W. Ochterski, R. L. Martin, K. Morokuma, O. Farkas, 
 J. B. Foresman, and D. J. Fox, Gaussian, Inc., Wallingford CT, 2019.
 
 ******************************************
 Gaussian 16:  AS64L-G16RevC.02  7-Dec-2021
                30-Oct-2023 
 ******************************************
 %chk=cp.chk
 %NProcshared=16
 Will use up to   16 processors via shared memory.
 Default route: MaxDisk=500GB
 ----------------------------------------------------------------------
 #p b3lyp/def2svp opt Symmetry=None int=ultrafine scrf=(SMD,solvent=Ace
 tonitrile) EmpiricalDispersion=GD3BJ
 ----------------------------------------------------------------------
 1/18=20,19=15,26=6,38=1/1,3;
 2/9=110,12=2,15=3,17=6,18=5,40=1/2;
 3/5=43,7=101,11=2,25=1,30=1,70=32201,71=1,72=2,74=-5,75=-5,124=41/1,2,3;
 4//1;
 5/5=2,38=5,53=2/2;
 6/7=2,8=2,9=2,10=2,28=1/1;
 7/30=1/1,2,3,16;
 1/18=20,19=15,26=6/3(2);
 2/9=110,15=3/2;
 99//99;
 2/9=110,15=3/2;
 3/5=43,7=101,11=2,25=1,30=1,70=32205,71=1,72=2,74=-5,75=-5,124=41/1,2,3;
 4/5=5,16=3,69=1/1;
 5/5=2,38=5,53=2/2;
 7/30=1/1,2,3,16;
 1/18=20,19=15,26=6/3(-5);
 2/9=110,15=3/2;
 6/7=2,8=2,9=2,10=2,19=2,28=1/1;
 99/9=1/99;
 Leave Link    1 at Mon Oct 30 13:32:23 2023, MaxMem=           0 cpu:               0.1 elap:               0.1
 (Enter /opt/software/packages/g16/l101.exe)
 -----
 Title
 -----
 Symbolic Z-matrix:
 Charge =  1 Multiplicity = 1
 Ir                   -0.00454   0.09342  -0.03281 
 S                     0.23436  -3.22248  -3.13822 
 S                     0.11031  -3.51117   2.7449 
 N                     1.72557   0.01623  -1.28168 
 N                    -1.71174  -0.29091   1.19621 
 N                     1.10411   1.94005   2.32415 
 N                    -1.31048   2.18672  -2.06454 
 C                     2.70862   0.98968  -1.36213 
 C                     2.4555    2.29931  -0.89872 
 H                     1.474     2.54682  -0.49925 
 C                     3.41629   3.28796  -1.00039 
 H                     3.18716   4.29798  -0.65264 
 C                     4.66897   3.00233  -1.56264 
 H                     5.4298    3.78153  -1.63859 
 C                     4.92922   1.73154  -2.04019 
 H                     5.89741   1.52457  -2.4976 
 C                     3.96703   0.70354  -1.96345 
 C                     4.21006  -0.63299  -2.45624 
 C                     5.47558  -1.05517  -2.91214 
 H                     6.31359  -0.35772  -2.9076 
 C                     5.68136  -2.35131  -3.34689 
 H                     6.67232  -2.65774  -3.68868 
 C                     4.62842  -3.27799  -3.3243 
 H                     4.79804  -4.31179  -3.631 
 C                     3.376    -2.88731  -2.89133 
 H                     2.59299  -3.64152  -2.82728 
 C                     3.13189  -1.56159  -2.46683 
 C                     1.84885  -1.14916  -1.94673 
 C                    -0.50527  -1.39562  -1.38836 
 C                    -1.69415  -2.10423  -1.74544 
 C                    -3.02901  -1.88869  -1.33836 
 H                    -3.26486  -1.06286  -0.66475 
 C                    -4.04224  -2.70288  -1.81769 
 H                    -5.07238  -2.53225  -1.49542 
 C                    -3.75981  -3.7417   -2.72345 
 H                    -4.57023  -4.37609  -3.08975 
 C                    -2.46425  -3.96394  -3.1743 
 H                    -2.25171  -4.75747  -3.89394 
 C                    -1.44242  -3.14258  -2.6877 
 C                     0.60775  -1.87701  -2.05711 
 C                    -2.78787   0.56179   1.3871 
 C                    -2.66534   1.94031   1.10722 
 H                    -1.71121   2.3365    0.76543 
 C                    -3.7215    2.80638   1.3201 
 H                    -3.5932    3.87131   1.11228 
 C                    -4.94127   2.32614   1.81891 
 H                    -5.77661   3.0093    1.9842 
 C                    -5.07352   0.98415   2.12324 
 H                    -6.01563   0.62336   2.538 
 C                    -4.01282   0.07596   1.92716 
 C                    -4.12078  -1.33118   2.23841 
 C                    -5.34071  -1.93943   2.59758 
 H                    -6.2495   -1.33974   2.65434 
 C                    -5.41144  -3.29581   2.85708 
 H                    -6.36921  -3.74693   3.12531 
 C                    -4.26397  -4.09597   2.75069 
 H                    -4.3261   -5.17277   2.91873 
 C                    -3.05392  -3.52346   2.40899 
 H                    -2.19168  -4.17548   2.27372 
 C                    -2.94986  -2.13583   2.16192 
 C                    -1.71532  -1.53189   1.71986 
 C                     0.64771  -1.4832    1.14983 
 C                     1.90644  -2.08463   1.45983 
 C                     3.20959  -1.69177   1.08464 
 H                     3.35197  -0.8011    0.4702 
 C                     4.30687  -2.41505   1.52295 
 H                     5.31257  -2.10609   1.22777 
 C                     4.14058  -3.53682   2.35559 
 H                     5.01666  -4.0957    2.69252 
 C                     2.87627  -3.93814   2.76995 
 H                     2.75219  -4.7974    3.43234 
 C                     1.76955  -3.2095    2.32327 
 C                    -0.40582  -2.13621   1.76495 
 C                     0.70006   1.32809   1.40619 
 C                     1.59523   2.65929   3.38665 
 C                     2.26678   1.95957   4.41199 
 C                     2.75906   2.71587   5.47827 
 H                     3.28427   2.20482   6.28882 
 C                     2.5876    4.09912   5.51546 
 H                     2.98321   4.67031   6.35845 
 C                     1.91438   4.76051   4.48911 
 H                     1.7807    5.84434   4.52808 
 C                     1.39759   4.05637   3.39895 
 C                     2.43007   0.47926   4.33414 
 H                     2.93723   0.08525   5.22257 
 H                     3.01817   0.18594   3.45015 
 H                     1.4581   -0.03111   4.24104 
 C                     0.64821   4.72417   2.29584 
 H                     0.66956   5.81527   2.39994 
 H                    -0.40766   4.40967   2.28602 
 H                     1.05696   4.4664    1.30711 
 C                    -0.83035   1.45365  -1.28197 
 C                    -1.88244   3.09141  -2.92556 
 C                    -1.71331   4.46618  -2.65427 
 C                    -2.30873   5.36558  -3.54172 
 H                    -2.19753   6.43738  -3.36016 
 C                    -3.03168   4.91176  -4.64438 
 H                    -3.48739   5.63355  -5.32616 
 C                    -3.17823   3.54643  -4.88637 
 H                    -3.74607   3.19932  -5.75304 
 C                    -2.60734   2.60029  -4.03165 
 C                    -0.91615   4.91063  -1.47456 
 H                    -1.27382   4.44709  -0.54231 
 H                    -0.95545   5.99916  -1.35106 
 H                     0.14214   4.6224   -1.57784 
 C                    -2.74805   1.13216  -4.25041 
 H                    -3.30133   0.91627  -5.17161 
 H                    -3.28105   0.65139  -3.41508 
 H                    -1.76753   0.63463  -4.31651 
 
 ITRead=  0  0  0  0  0  0  0  0  0  0  0  0  0  0  0  0  0  0  0  0
 ITRead=  0  0  0  0  0  0  0  0  0  0  0  0  0  0  0  0  0  0  0  0
 ITRead=  0  0  0  0  0  0  0  0  0  0  0  0  0  0  0  0  0  0  0  0
 ITRead=  0  0  0  0  0  0  0  0  0  0  0  0  0  0  0  0  0  0  0  0
 ITRead=  0  0  0  0  0  0  0  0  0  0  0  0  0  0  0  0  0  0  0  0
 ITRead=  0  0  0  0  0  0  0  0  0
 MicOpt= -1 -1 -1 -1 -1 -1 -1 -1 -1 -1 -1 -1 -1 -1 -1 -1 -1 -1 -1 -1
 MicOpt= -1 -1 -1 -1 -1 -1 -1 -1 -1 -1 -1 -1 -1 -1 -1 -1 -1 -1 -1 -1
 MicOpt= -1 -1 -1 -1 -1 -1 -1 -1 -1 -1 -1 -1 -1 -1 -1 -1 -1 -1 -1 -1
 MicOpt= -1 -1 -1 -1 -1 -1 -1 -1 -1 -1 -1 -1 -1 -1 -1 -1 -1 -1 -1 -1
 MicOpt= -1 -1 -1 -1 -1 -1 -1 -1 -1 -1 -1 -1 -1 -1 -1 -1 -1 -1 -1 -1
 MicOpt= -1 -1 -1 -1 -1 -1 -1 -1 -1
 NAtoms=    109 NQM=      109 NQMF=       0 NMMI=      0 NMMIF=      0
                NMic=       0 NMicF=      0.
                    Isotopes and Nuclear Properties:
 (Nuclear quadrupole moments (NQMom) in fm**2, nuclear magnetic moments (NMagM)
  in nuclear magnetons)

  Atom         1           2           3           4           5           6           7           8           9          10
 IAtWgt=         193          32          32          14          14          14          14          12          12           1
 AtmWgt= 192.9633000  31.9720718  31.9720718  14.0030740  14.0030740  14.0030740  14.0030740  12.0000000  12.0000000   1.0078250
 NucSpn=           3           0           0           2           2           2           2           0           0           1
 AtZEff=  -0.0000000  -0.0000000  -0.0000000  -0.0000000  -0.0000000  -0.0000000  -0.0000000  -0.0000000  -0.0000000  -0.0000000
 NQMom=   75.1000000   0.0000000   0.0000000   2.0440000   2.0440000   2.0440000   2.0440000   0.0000000   0.0000000   0.0000000
 NMagM=    0.1592000   0.0000000   0.0000000   0.4037610   0.4037610   0.4037610   0.4037610   0.0000000   0.0000000   2.7928460
 AtZNuc=  77.0000000  16.0000000  16.0000000   7.0000000   7.0000000   7.0000000   7.0000000   6.0000000   6.0000000   1.0000000

  Atom        11          12          13          14          15          16          17          18          19          20
 IAtWgt=          12           1          12           1          12           1          12          12          12           1
 AtmWgt=  12.0000000   1.0078250  12.0000000   1.0078250  12.0000000   1.0078250  12.0000000  12.0000000  12.0000000   1.0078250
 NucSpn=           0           1           0           1           0           1           0           0           0           1
 AtZEff=  -0.0000000  -0.0000000  -0.0000000  -0.0000000  -0.0000000  -0.0000000  -0.0000000  -0.0000000  -0.0000000  -0.0000000
 NQMom=    0.0000000   0.0000000   0.0000000   0.0000000   0.0000000   0.0000000   0.0000000   0.0000000   0.0000000   0.0000000
 NMagM=    0.0000000   2.7928460   0.0000000   2.7928460   0.0000000   2.7928460   0.0000000   0.0000000   0.0000000   2.7928460
 AtZNuc=   6.0000000   1.0000000   6.0000000   1.0000000   6.0000000   1.0000000   6.0000000   6.0000000   6.0000000   1.0000000

  Atom        21          22          23          24          25          26          27          28          29          30
 IAtWgt=          12           1          12           1          12           1          12          12          12          12
 AtmWgt=  12.0000000   1.0078250  12.0000000   1.0078250  12.0000000   1.0078250  12.0000000  12.0000000  12.0000000  12.0000000
 NucSpn=           0           1           0           1           0           1           0           0           0           0
 AtZEff=  -0.0000000  -0.0000000  -0.0000000  -0.0000000  -0.0000000  -0.0000000  -0.0000000  -0.0000000  -0.0000000  -0.0000000
 NQMom=    0.0000000   0.0000000   0.0000000   0.0000000   0.0000000   0.0000000   0.0000000   0.0000000   0.0000000   0.0000000
 NMagM=    0.0000000   2.7928460   0.0000000   2.7928460   0.0000000   2.7928460   0.0000000   0.0000000   0.0000000   0.0000000
 AtZNuc=   6.0000000   1.0000000   6.0000000   1.0000000   6.0000000   1.0000000   6.0000000   6.0000000   6.0000000   6.0000000

  Atom        31          32          33          34          35          36          37          38          39          40
 IAtWgt=          12           1          12           1          12           1          12           1          12          12
 AtmWgt=  12.0000000   1.0078250  12.0000000   1.0078250  12.0000000   1.0078250  12.0000000   1.0078250  12.0000000  12.0000000
 NucSpn=           0           1           0           1           0           1           0           1           0           0
 AtZEff=  -0.0000000  -0.0000000  -0.0000000  -0.0000000  -0.0000000  -0.0000000  -0.0000000  -0.0000000  -0.0000000  -0.0000000
 NQMom=    0.0000000   0.0000000   0.0000000   0.0000000   0.0000000   0.0000000   0.0000000   0.0000000   0.0000000   0.0000000
 NMagM=    0.0000000   2.7928460   0.0000000   2.7928460   0.0000000   2.7928460   0.0000000   2.7928460   0.0000000   0.0000000
 AtZNuc=   6.0000000   1.0000000   6.0000000   1.0000000   6.0000000   1.0000000   6.0000000   1.0000000   6.0000000   6.0000000

  Atom        41          42          43          44          45          46          47          48          49          50
 IAtWgt=          12          12           1          12           1          12           1          12           1          12
 AtmWgt=  12.0000000  12.0000000   1.0078250  12.0000000   1.0078250  12.0000000   1.0078250  12.0000000   1.0078250  12.0000000
 NucSpn=           0           0           1           0           1           0           1           0           1           0
 AtZEff=  -0.0000000  -0.0000000  -0.0000000  -0.0000000  -0.0000000  -0.0000000  -0.0000000  -0.0000000  -0.0000000  -0.0000000
 NQMom=    0.0000000   0.0000000   0.0000000   0.0000000   0.0000000   0.0000000   0.0000000   0.0000000   0.0000000   0.0000000
 NMagM=    0.0000000   0.0000000   2.7928460   0.0000000   2.7928460   0.0000000   2.7928460   0.0000000   2.7928460   0.0000000
 AtZNuc=   6.0000000   6.0000000   1.0000000   6.0000000   1.0000000   6.0000000   1.0000000   6.0000000   1.0000000   6.0000000

  Atom        51          52          53          54          55          56          57          58          59          60
 IAtWgt=          12          12           1          12           1          12           1          12           1          12
 AtmWgt=  12.0000000  12.0000000   1.0078250  12.0000000   1.0078250  12.0000000   1.0078250  12.0000000   1.0078250  12.0000000
 NucSpn=           0           0           1           0           1           0           1           0           1           0
 AtZEff=  -0.0000000  -0.0000000  -0.0000000  -0.0000000  -0.0000000  -0.0000000  -0.0000000  -0.0000000  -0.0000000  -0.0000000
 NQMom=    0.0000000   0.0000000   0.0000000   0.0000000   0.0000000   0.0000000   0.0000000   0.0000000   0.0000000   0.0000000
 NMagM=    0.0000000   0.0000000   2.7928460   0.0000000   2.7928460   0.0000000   2.7928460   0.0000000   2.7928460   0.0000000
 AtZNuc=   6.0000000   6.0000000   1.0000000   6.0000000   1.0000000   6.0000000   1.0000000   6.0000000   1.0000000   6.0000000

  Atom        61          62          63          64          65          66          67          68          69          70
 IAtWgt=          12          12          12          12           1          12           1          12           1          12
 AtmWgt=  12.0000000  12.0000000  12.0000000  12.0000000   1.0078250  12.0000000   1.0078250  12.0000000   1.0078250  12.0000000
 NucSpn=           0           0           0           0           1           0           1           0           1           0
 AtZEff=  -0.0000000  -0.0000000  -0.0000000  -0.0000000  -0.0000000  -0.0000000  -0.0000000  -0.0000000  -0.0000000  -0.0000000
 NQMom=    0.0000000   0.0000000   0.0000000   0.0000000   0.0000000   0.0000000   0.0000000   0.0000000   0.0000000   0.0000000
 NMagM=    0.0000000   0.0000000   0.0000000   0.0000000   2.7928460   0.0000000   2.7928460   0.0000000   2.7928460   0.0000000
 AtZNuc=   6.0000000   6.0000000   6.0000000   6.0000000   1.0000000   6.0000000   1.0000000   6.0000000   1.0000000   6.0000000

  Atom        71          72          73          74          75          76          77          78          79          80
 IAtWgt=           1          12          12          12          12          12          12           1          12           1
 AtmWgt=   1.0078250  12.0000000  12.0000000  12.0000000  12.0000000  12.0000000  12.0000000   1.0078250  12.0000000   1.0078250
 NucSpn=           1           0           0           0           0           0           0           1           0           1
 AtZEff=  -0.0000000  -0.0000000  -0.0000000  -0.0000000  -0.0000000  -0.0000000  -0.0000000  -0.0000000  -0.0000000  -0.0000000
 NQMom=    0.0000000   0.0000000   0.0000000   0.0000000   0.0000000   0.0000000   0.0000000   0.0000000   0.0000000   0.0000000
 NMagM=    2.7928460   0.0000000   0.0000000   0.0000000   0.0000000   0.0000000   0.0000000   2.7928460   0.0000000   2.7928460
 AtZNuc=   1.0000000   6.0000000   6.0000000   6.0000000   6.0000000   6.0000000   6.0000000   1.0000000   6.0000000   1.0000000

  Atom        81          82          83          84          85          86          87          88          89          90
 IAtWgt=          12           1          12          12           1           1           1          12           1           1
 AtmWgt=  12.0000000   1.0078250  12.0000000  12.0000000   1.0078250   1.0078250   1.0078250  12.0000000   1.0078250   1.0078250
 NucSpn=           0           1           0           0           1           1           1           0           1           1
 AtZEff=  -0.0000000  -0.0000000  -0.0000000  -0.0000000  -0.0000000  -0.0000000  -0.0000000  -0.0000000  -0.0000000  -0.0000000
 NQMom=    0.0000000   0.0000000   0.0000000   0.0000000   0.0000000   0.0000000   0.0000000   0.0000000   0.0000000   0.0000000
 NMagM=    0.0000000   2.7928460   0.0000000   0.0000000   2.7928460   2.7928460   2.7928460   0.0000000   2.7928460   2.7928460
 AtZNuc=   6.0000000   1.0000000   6.0000000   6.0000000   1.0000000   1.0000000   1.0000000   6.0000000   1.0000000   1.0000000

  Atom        91          92          93          94          95          96          97          98          99         100
 IAtWgt=           1          12          12          12          12           1          12           1          12           1
 AtmWgt=   1.0078250  12.0000000  12.0000000  12.0000000  12.0000000   1.0078250  12.0000000   1.0078250  12.0000000   1.0078250
 NucSpn=           1           0           0           0           0           1           0           1           0           1
 AtZEff=  -0.0000000  -0.0000000  -0.0000000  -0.0000000  -0.0000000  -0.0000000  -0.0000000  -0.0000000  -0.0000000  -0.0000000
 NQMom=    0.0000000   0.0000000   0.0000000   0.0000000   0.0000000   0.0000000   0.0000000   0.0000000   0.0000000   0.0000000
 NMagM=    2.7928460   0.0000000   0.0000000   0.0000000   0.0000000   2.7928460   0.0000000   2.7928460   0.0000000   2.7928460
 AtZNuc=   1.0000000   6.0000000   6.0000000   6.0000000   6.0000000   1.0000000   6.0000000   1.0000000   6.0000000   1.0000000

  Atom       101         102         103         104         105         106         107         108         109
 IAtWgt=          12          12           1           1           1          12           1           1           1
 AtmWgt=  12.0000000  12.0000000   1.0078250   1.0078250   1.0078250  12.0000000   1.0078250   1.0078250   1.0078250
 NucSpn=           0           0           1           1           1           0           1           1           1
 AtZEff=  -0.0000000  -0.0000000  -0.0000000  -0.0000000  -0.0000000  -0.0000000  -0.0000000  -0.0000000  -0.0000000
 NQMom=    0.0000000   0.0000000   0.0000000   0.0000000   0.0000000   0.0000000   0.0000000   0.0000000   0.0000000
 NMagM=    0.0000000   0.0000000   2.7928460   2.7928460   2.7928460   0.0000000   2.7928460   2.7928460   2.7928460
 AtZNuc=   6.0000000   6.0000000   1.0000000   1.0000000   1.0000000   6.0000000   1.0000000   1.0000000   1.0000000
 Leave Link  101 at Mon Oct 30 13:32:23 2023, MaxMem=  2831155200 cpu:               0.1 elap:               0.1
 (Enter /opt/software/packages/g16/l103.exe)

 GradGradGradGradGradGradGradGradGradGradGradGradGradGradGradGradGradGrad
 Berny optimization.
 Initialization pass.
                           ----------------------------
                           !    Initial Parameters    !
                           ! (Angstroms and Degrees)  !
 --------------------------                            --------------------------
 ! Name  Definition              Value          Derivative Info.                !
 --------------------------------------------------------------------------------
 ! R1    R(1,4)                  2.1352         estimate D2E/DX2                !
 ! R2    R(1,5)                  2.1384         estimate D2E/DX2                !
 ! R3    R(1,29)                 2.075          estimate D2E/DX2                !
 ! R4    R(1,62)                 2.076          estimate D2E/DX2                !
 ! R5    R(1,74)                 2.0228         estimate D2E/DX2                !
 ! R6    R(1,92)                 2.023          estimate D2E/DX2                !
 ! R7    R(2,39)                 1.7381         estimate D2E/DX2                !
 ! R8    R(2,40)                 1.7659         estimate D2E/DX2                !
 ! R9    R(3,72)                 1.7384         estimate D2E/DX2                !
 ! R10   R(3,73)                 1.7656         estimate D2E/DX2                !
 ! R11   R(4,8)                  1.3858         estimate D2E/DX2                !
 ! R12   R(4,28)                 1.3474         estimate D2E/DX2                !
 ! R13   R(5,41)                 1.3862         estimate D2E/DX2                !
 ! R14   R(5,61)                 1.3469         estimate D2E/DX2                !
 ! R15   R(6,74)                 1.1749         estimate D2E/DX2                !
 ! R16   R(6,75)                 1.3738         estimate D2E/DX2                !
 ! R17   R(7,92)                 1.1749         estimate D2E/DX2                !
 ! R18   R(7,93)                 1.3737         estimate D2E/DX2                !
 ! R19   R(8,9)                  1.4121         estimate D2E/DX2                !
 ! R20   R(8,17)                 1.4237         estimate D2E/DX2                !
 ! R21   R(9,10)                 1.0882         estimate D2E/DX2                !
 ! R22   R(9,11)                 1.3823         estimate D2E/DX2                !
 ! R23   R(11,12)                1.0925         estimate D2E/DX2                !
 ! R24   R(11,13)                1.4025         estimate D2E/DX2                !
 ! R25   R(13,14)                1.0917         estimate D2E/DX2                !
 ! R26   R(13,15)                1.3823         estimate D2E/DX2                !
 ! R27   R(15,16)                1.0906         estimate D2E/DX2                !
 ! R28   R(15,17)                1.4101         estimate D2E/DX2                !
 ! R29   R(17,18)                1.4451         estimate D2E/DX2                !
 ! R30   R(18,19)                1.4098         estimate D2E/DX2                !
 ! R31   R(18,27)                1.423          estimate D2E/DX2                !
 ! R32   R(19,20)                1.0903         estimate D2E/DX2                !
 ! R33   R(19,21)                1.3825         estimate D2E/DX2                !
 ! R34   R(21,22)                1.0921         estimate D2E/DX2                !
 ! R35   R(21,23)                1.4028         estimate D2E/DX2                !
 ! R36   R(23,24)                1.0916         estimate D2E/DX2                !
 ! R37   R(23,25)                1.3815         estimate D2E/DX2                !
 ! R38   R(25,26)                1.0891         estimate D2E/DX2                !
 ! R39   R(25,27)                1.4133         estimate D2E/DX2                !
 ! R40   R(27,28)                1.4446         estimate D2E/DX2                !
 ! R41   R(28,40)                1.443          estimate D2E/DX2                !
 ! R42   R(29,30)                1.4294         estimate D2E/DX2                !
 ! R43   R(29,40)                1.3848         estimate D2E/DX2                !
 ! R44   R(30,31)                1.4121         estimate D2E/DX2                !
 ! R45   R(30,39)                1.4246         estimate D2E/DX2                !
 ! R46   R(31,32)                1.0915         estimate D2E/DX2                !
 ! R47   R(31,33)                1.3854         estimate D2E/DX2                !
 ! R48   R(33,34)                1.0928         estimate D2E/DX2                !
 ! R49   R(33,35)                1.4069         estimate D2E/DX2                !
 ! R50   R(35,36)                1.0924         estimate D2E/DX2                !
 ! R51   R(35,37)                1.3897         estimate D2E/DX2                !
 ! R52   R(37,38)                1.0921         estimate D2E/DX2                !
 ! R53   R(37,39)                1.3984         estimate D2E/DX2                !
 ! R54   R(41,42)                1.412          estimate D2E/DX2                !
 ! R55   R(41,50)                1.4242         estimate D2E/DX2                !
 ! R56   R(42,43)                1.0882         estimate D2E/DX2                !
 ! R57   R(42,44)                1.3823         estimate D2E/DX2                !
 ! R58   R(44,45)                1.0926         estimate D2E/DX2                !
 ! R59   R(44,46)                1.4026         estimate D2E/DX2                !
 ! R60   R(46,47)                1.0917         estimate D2E/DX2                !
 ! R61   R(46,48)                1.3824         estimate D2E/DX2                !
 ! R62   R(48,49)                1.0908         estimate D2E/DX2                !
 ! R63   R(48,50)                1.4101         estimate D2E/DX2                !
 ! R64   R(50,51)                1.4452         estimate D2E/DX2                !
 ! R65   R(51,52)                1.4097         estimate D2E/DX2                !
 ! R66   R(51,60)                1.4228         estimate D2E/DX2                !
 ! R67   R(52,53)                1.0903         estimate D2E/DX2                !
 ! R68   R(52,54)                1.3828         estimate D2E/DX2                !
 ! R69   R(54,55)                1.0921         estimate D2E/DX2                !
 ! R70   R(54,56)                1.4029         estimate D2E/DX2                !
 ! R71   R(56,57)                1.0916         estimate D2E/DX2                !
 ! R72   R(56,58)                1.3816         estimate D2E/DX2                !
 ! R73   R(58,59)                1.0894         estimate D2E/DX2                !
 ! R74   R(58,60)                1.4133         estimate D2E/DX2                !
 ! R75   R(60,61)                1.4437         estimate D2E/DX2                !
 ! R76   R(61,73)                1.4429         estimate D2E/DX2                !
 ! R77   R(62,63)                1.4291         estimate D2E/DX2                !
 ! R78   R(62,73)                1.3837         estimate D2E/DX2                !
 ! R79   R(63,64)                1.4119         estimate D2E/DX2                !
 ! R80   R(63,72)                1.4246         estimate D2E/DX2                !
 ! R81   R(64,65)                1.0914         estimate D2E/DX2                !
 ! R82   R(64,66)                1.3854         estimate D2E/DX2                !
 ! R83   R(66,67)                1.0927         estimate D2E/DX2                !
 ! R84   R(66,68)                1.4069         estimate D2E/DX2                !
 ! R85   R(68,69)                1.0924         estimate D2E/DX2                !
 ! R86   R(68,70)                1.3897         estimate D2E/DX2                !
 ! R87   R(70,71)                1.092          estimate D2E/DX2                !
 ! R88   R(70,72)                1.3983         estimate D2E/DX2                !
 ! R89   R(75,76)                1.4114         estimate D2E/DX2                !
 ! R90   R(75,83)                1.411          estimate D2E/DX2                !
 ! R91   R(76,77)                1.3969         estimate D2E/DX2                !
 ! R92   R(76,84)                1.4913         estimate D2E/DX2                !
 ! R93   R(77,78)                1.0927         estimate D2E/DX2                !
 ! R94   R(77,79)                1.3943         estimate D2E/DX2                !
 ! R95   R(79,80)                1.0924         estimate D2E/DX2                !
 ! R96   R(79,81)                1.3943         estimate D2E/DX2                !
 ! R97   R(81,82)                1.0927         estimate D2E/DX2                !
 ! R98   R(81,83)                1.3969         estimate D2E/DX2                !
 ! R99   R(83,88)                1.4914         estimate D2E/DX2                !
 ! R100  R(84,85)                1.0963         estimate D2E/DX2                !
 ! R101  R(84,86)                1.1015         estimate D2E/DX2                !
 ! R102  R(84,87)                1.1018         estimate D2E/DX2                !
 ! R103  R(88,89)                1.0963         estimate D2E/DX2                !
 ! R104  R(88,90)                1.1018         estimate D2E/DX2                !
 ! R105  R(88,91)                1.1005         estimate D2E/DX2                !
 ! R106  R(93,94)                1.4115         estimate D2E/DX2                !
 ! R107  R(93,101)               1.4107         estimate D2E/DX2                !
 ! R108  R(94,95)                1.3968         estimate D2E/DX2                !
 ! R109  R(94,102)               1.4915         estimate D2E/DX2                !
 ! R110  R(95,96)                1.0927         estimate D2E/DX2                !
 ! R111  R(95,97)                1.3944         estimate D2E/DX2                !
 ! R112  R(97,98)                1.0925         estimate D2E/DX2                !
 ! R113  R(97,99)                1.3943         estimate D2E/DX2                !
 ! R114  R(99,100)               1.0927         estimate D2E/DX2                !
 ! R115  R(99,101)               1.397          estimate D2E/DX2                !
 ! R116  R(101,106)              1.491          estimate D2E/DX2                !
 ! R117  R(102,103)              1.1009         estimate D2E/DX2                !
 ! R118  R(102,104)              1.0962         estimate D2E/DX2                !
 ! R119  R(102,105)              1.1017         estimate D2E/DX2                !
 ! R120  R(106,107)              1.0961         estimate D2E/DX2                !
 ! R121  R(106,108)              1.1014         estimate D2E/DX2                !
 ! R122  R(106,109)              1.1015         estimate D2E/DX2                !
 ! A1    A(4,1,29)              77.7299         estimate D2E/DX2                !
 ! A2    A(4,1,62)              92.933          estimate D2E/DX2                !
 ! A3    A(4,1,74)              98.9698         estimate D2E/DX2                !
 ! A4    A(4,1,92)              89.6509         estimate D2E/DX2                !
 ! A5    A(5,1,29)              93.0863         estimate D2E/DX2                !
 ! A6    A(5,1,62)              77.6974         estimate D2E/DX2                !
 ! A7    A(5,1,74)              88.7928         estimate D2E/DX2                !
 ! A8    A(5,1,92)              98.6176         estimate D2E/DX2                !
 ! A9    A(29,1,62)             84.4327         estimate D2E/DX2                !
 ! A10   A(29,1,92)             88.8892         estimate D2E/DX2                !
 ! A11   A(62,1,74)             87.0684         estimate D2E/DX2                !
 ! A12   A(74,1,92)             99.8487         estimate D2E/DX2                !
 ! A13   A(39,2,40)             90.5885         estimate D2E/DX2                !
 ! A14   A(72,3,73)             90.5306         estimate D2E/DX2                !
 ! A15   A(1,4,8)              125.6871         estimate D2E/DX2                !
 ! A16   A(1,4,28)             113.2093         estimate D2E/DX2                !
 ! A17   A(8,4,28)             120.9291         estimate D2E/DX2                !
 ! A18   A(1,5,41)             126.0406         estimate D2E/DX2                !
 ! A19   A(1,5,61)             113.0261         estimate D2E/DX2                !
 ! A20   A(41,5,61)            120.7398         estimate D2E/DX2                !
 ! A21   A(4,8,9)              120.3494         estimate D2E/DX2                !
 ! A22   A(4,8,17)             120.686          estimate D2E/DX2                !
 ! A23   A(9,8,17)             118.9105         estimate D2E/DX2                !
 ! A24   A(8,9,10)             119.5444         estimate D2E/DX2                !
 ! A25   A(8,9,11)             120.9694         estimate D2E/DX2                !
 ! A26   A(10,9,11)            119.4212         estimate D2E/DX2                !
 ! A27   A(9,11,12)            119.4726         estimate D2E/DX2                !
 ! A28   A(9,11,13)            120.3074         estimate D2E/DX2                !
 ! A29   A(12,11,13)           120.2139         estimate D2E/DX2                !
 ! A30   A(11,13,14)           120.3325         estimate D2E/DX2                !
 ! A31   A(11,13,15)           119.5979         estimate D2E/DX2                !
 ! A32   A(14,13,15)           120.0622         estimate D2E/DX2                !
 ! A33   A(13,15,16)           119.1108         estimate D2E/DX2                !
 ! A34   A(13,15,17)           121.5296         estimate D2E/DX2                !
 ! A35   A(16,15,17)           119.3553         estimate D2E/DX2                !
 ! A36   A(8,17,15)            118.6573         estimate D2E/DX2                !
 ! A37   A(8,17,18)            118.5913         estimate D2E/DX2                !
 ! A38   A(15,17,18)           122.7477         estimate D2E/DX2                !
 ! A39   A(17,18,19)           122.5609         estimate D2E/DX2                !
 ! A40   A(17,18,27)           118.5991         estimate D2E/DX2                !
 ! A41   A(19,18,27)           118.8363         estimate D2E/DX2                !
 ! A42   A(18,19,20)           119.8048         estimate D2E/DX2                !
 ! A43   A(18,19,21)           121.0672         estimate D2E/DX2                !
 ! A44   A(20,19,21)           119.1192         estimate D2E/DX2                !
 ! A45   A(19,21,22)           119.7707         estimate D2E/DX2                !
 ! A46   A(19,21,23)           120.1672         estimate D2E/DX2                !
 ! A47   A(22,21,23)           120.0497         estimate D2E/DX2                !
 ! A48   A(21,23,24)           120.2949         estimate D2E/DX2                !
 ! A49   A(21,23,25)           119.9124         estimate D2E/DX2                !
 ! A50   A(24,23,25)           119.7841         estimate D2E/DX2                !
 ! A51   A(23,25,26)           118.3186         estimate D2E/DX2                !
 ! A52   A(23,25,27)           121.0634         estimate D2E/DX2                !
 ! A53   A(26,25,27)           120.5165         estimate D2E/DX2                !
 ! A54   A(18,27,25)           118.9155         estimate D2E/DX2                !
 ! A55   A(18,27,28)           118.9446         estimate D2E/DX2                !
 ! A56   A(25,27,28)           121.9632         estimate D2E/DX2                !
 ! A57   A(4,28,27)            120.3906         estimate D2E/DX2                !
 ! A58   A(4,28,40)            113.2852         estimate D2E/DX2                !
 ! A59   A(27,28,40)           126.3241         estimate D2E/DX2                !
 ! A60   A(1,29,30)            136.028          estimate D2E/DX2                !
 ! A61   A(1,29,40)            111.7766         estimate D2E/DX2                !
 ! A62   A(30,29,40)           112.0569         estimate D2E/DX2                !
 ! A63   A(29,30,31)           129.6861         estimate D2E/DX2                !
 ! A64   A(29,30,39)           112.3095         estimate D2E/DX2                !
 ! A65   A(31,30,39)           117.9673         estimate D2E/DX2                !
 ! A66   A(30,31,32)           119.8447         estimate D2E/DX2                !
 ! A67   A(30,31,33)           120.1274         estimate D2E/DX2                !
 ! A68   A(32,31,33)           120.0094         estimate D2E/DX2                !
 ! A69   A(31,33,34)           119.7127         estimate D2E/DX2                !
 ! A70   A(31,33,35)           120.6555         estimate D2E/DX2                !
 ! A71   A(34,33,35)           119.6301         estimate D2E/DX2                !
 ! A72   A(33,35,36)           119.7182         estimate D2E/DX2                !
 ! A73   A(33,35,37)           120.9384         estimate D2E/DX2                !
 ! A74   A(36,35,37)           119.3384         estimate D2E/DX2                !
 ! A75   A(35,37,38)           120.7578         estimate D2E/DX2                !
 ! A76   A(35,37,39)           118.3206         estimate D2E/DX2                !
 ! A77   A(38,37,39)           120.921          estimate D2E/DX2                !
 ! A78   A(2,39,30)            112.0504         estimate D2E/DX2                !
 ! A79   A(2,39,37)            125.9967         estimate D2E/DX2                !
 ! A80   A(30,39,37)           121.9485         estimate D2E/DX2                !
 ! A81   A(2,40,28)            127.8056         estimate D2E/DX2                !
 ! A82   A(2,40,29)            112.9892         estimate D2E/DX2                !
 ! A83   A(28,40,29)           118.6188         estimate D2E/DX2                !
 ! A84   A(5,41,42)            120.3909         estimate D2E/DX2                !
 ! A85   A(5,41,50)            120.6706         estimate D2E/DX2                !
 ! A86   A(42,41,50)           118.8723         estimate D2E/DX2                !
 ! A87   A(41,42,43)           119.5903         estimate D2E/DX2                !
 ! A88   A(41,42,44)           120.9877         estimate D2E/DX2                !
 ! A89   A(43,42,44)           119.3526         estimate D2E/DX2                !
 ! A90   A(42,44,45)           119.4497         estimate D2E/DX2                !
 ! A91   A(42,44,46)           120.3112         estimate D2E/DX2                !
 ! A92   A(45,44,46)           120.2313         estimate D2E/DX2                !
 ! A93   A(44,46,47)           120.3322         estimate D2E/DX2                !
 ! A94   A(44,46,48)           119.5953         estimate D2E/DX2                !
 ! A95   A(47,46,48)           120.0627         estimate D2E/DX2                !
 ! A96   A(46,48,49)           119.172          estimate D2E/DX2                !
 ! A97   A(46,48,50)           121.5109         estimate D2E/DX2                !
 ! A98   A(49,48,50)           119.3111         estimate D2E/DX2                !
 ! A99   A(41,50,48)           118.6872         estimate D2E/DX2                !
 ! A100  A(41,50,51)           118.5602         estimate D2E/DX2                !
 ! A101  A(48,50,51)           122.7494         estimate D2E/DX2                !
 ! A102  A(50,51,52)           122.6596         estimate D2E/DX2                !
 ! A103  A(50,51,60)           118.5284         estimate D2E/DX2                !
 ! A104  A(52,51,60)           118.8072         estimate D2E/DX2                !
 ! A105  A(51,52,53)           119.8188         estimate D2E/DX2                !
 ! A106  A(51,52,54)           121.019          estimate D2E/DX2                !
 ! A107  A(53,52,54)           119.1514         estimate D2E/DX2                !
 ! A108  A(52,54,55)           119.7433         estimate D2E/DX2                !
 ! A109  A(52,54,56)           120.2239         estimate D2E/DX2                !
 ! A110  A(55,54,56)           120.0205         estimate D2E/DX2                !
 ! A111  A(54,56,57)           120.2904         estimate D2E/DX2                !
 ! A112  A(54,56,58)           119.9186         estimate D2E/DX2                !
 ! A113  A(57,56,58)           119.7814         estimate D2E/DX2                !
 ! A114  A(56,58,59)           118.4172         estimate D2E/DX2                !
 ! A115  A(56,58,60)           120.9703         estimate D2E/DX2                !
 ! A116  A(59,58,60)           120.507          estimate D2E/DX2                !
 ! A117  A(51,60,58)           119.0309         estimate D2E/DX2                !
 ! A118  A(51,60,61)           118.9221         estimate D2E/DX2                !
 ! A119  A(58,60,61)           121.8181         estimate D2E/DX2                !
 ! A120  A(5,61,60)            120.4464         estimate D2E/DX2                !
 ! A121  A(5,61,73)            113.3039         estimate D2E/DX2                !
 ! A122  A(60,61,73)           126.2481         estimate D2E/DX2                !
 ! A123  A(1,62,63)            136.0488         estimate D2E/DX2                !
 ! A124  A(1,62,73)            111.8653         estimate D2E/DX2                !
 ! A125  A(63,62,73)           112.0601         estimate D2E/DX2                !
 ! A126  A(62,63,64)           129.6607         estimate D2E/DX2                !
 ! A127  A(62,63,72)           112.2804         estimate D2E/DX2                !
 ! A128  A(64,63,72)           117.9994         estimate D2E/DX2                !
 ! A129  A(63,64,65)           119.8096         estimate D2E/DX2                !
 ! A130  A(63,64,66)           120.1132         estimate D2E/DX2                !
 ! A131  A(65,64,66)           120.0572         estimate D2E/DX2                !
 ! A132  A(64,66,67)           119.7281         estimate D2E/DX2                !
 ! A133  A(64,66,68)           120.6576         estimate D2E/DX2                !
 ! A134  A(67,66,68)           119.6114         estimate D2E/DX2                !
 ! A135  A(66,68,69)           119.7134         estimate D2E/DX2                !
 ! A136  A(66,68,70)           120.9484         estimate D2E/DX2                !
 ! A137  A(69,68,70)           119.3343         estimate D2E/DX2                !
 ! A138  A(68,70,71)           120.7618         estimate D2E/DX2                !
 ! A139  A(68,70,72)           118.3158         estimate D2E/DX2                !
 ! A140  A(71,70,72)           120.9214         estimate D2E/DX2                !
 ! A141  A(3,72,63)            112.0699         estimate D2E/DX2                !
 ! A142  A(3,72,70)            125.9828         estimate D2E/DX2                !
 ! A143  A(63,72,70)           121.9379         estimate D2E/DX2                !
 ! A144  A(3,73,61)            127.5034         estimate D2E/DX2                !
 ! A145  A(3,73,62)            113.0587         estimate D2E/DX2                !
 ! A146  A(61,73,62)           118.6479         estimate D2E/DX2                !
 ! A147  A(6,75,76)            118.1902         estimate D2E/DX2                !
 ! A148  A(6,75,83)            118.3609         estimate D2E/DX2                !
 ! A149  A(76,75,83)           123.4483         estimate D2E/DX2                !
 ! A150  A(75,76,77)           116.9885         estimate D2E/DX2                !
 ! A151  A(75,76,84)           120.4173         estimate D2E/DX2                !
 ! A152  A(77,76,84)           122.5942         estimate D2E/DX2                !
 ! A153  A(76,77,78)           118.8413         estimate D2E/DX2                !
 ! A154  A(76,77,79)           120.9401         estimate D2E/DX2                !
 ! A155  A(78,77,79)           120.2187         estimate D2E/DX2                !
 ! A156  A(77,79,80)           119.6534         estimate D2E/DX2                !
 ! A157  A(77,79,81)           120.6854         estimate D2E/DX2                !
 ! A158  A(80,79,81)           119.6611         estimate D2E/DX2                !
 ! A159  A(79,81,82)           120.2188         estimate D2E/DX2                !
 ! A160  A(79,81,83)           120.9299         estimate D2E/DX2                !
 ! A161  A(82,81,83)           118.8512         estimate D2E/DX2                !
 ! A162  A(75,83,81)           117.0054         estimate D2E/DX2                !
 ! A163  A(75,83,88)           120.4809         estimate D2E/DX2                !
 ! A164  A(81,83,88)           122.5068         estimate D2E/DX2                !
 ! A165  A(76,84,85)           111.4146         estimate D2E/DX2                !
 ! A166  A(76,84,86)           111.3875         estimate D2E/DX2                !
 ! A167  A(76,84,87)           111.5693         estimate D2E/DX2                !
 ! A168  A(85,84,86)           107.9192         estimate D2E/DX2                !
 ! A169  A(85,84,87)           108.0664         estimate D2E/DX2                !
 ! A170  A(86,84,87)           106.2507         estimate D2E/DX2                !
 ! A171  A(83,88,89)           111.4462         estimate D2E/DX2                !
 ! A172  A(83,88,90)           111.1187         estimate D2E/DX2                !
 ! A173  A(83,88,91)           111.9015         estimate D2E/DX2                !
 ! A174  A(89,88,90)           107.6745         estimate D2E/DX2                !
 ! A175  A(89,88,91)           108.132          estimate D2E/DX2                !
 ! A176  A(90,88,91)           106.3256         estimate D2E/DX2                !
 ! A177  A(7,93,94)            118.1064         estimate D2E/DX2                !
 ! A178  A(7,93,101)           118.4332         estimate D2E/DX2                !
 ! A179  A(94,93,101)          123.4604         estimate D2E/DX2                !
 ! A180  A(93,94,95)           116.9989         estimate D2E/DX2                !
 ! A181  A(93,94,102)          120.4176         estimate D2E/DX2                !
 ! A182  A(95,94,102)          122.5798         estimate D2E/DX2                !
 ! A183  A(94,95,96)           118.857          estimate D2E/DX2                !
 ! A184  A(94,95,97)           120.9205         estimate D2E/DX2                !
 ! A185  A(96,95,97)           120.2223         estimate D2E/DX2                !
 ! A186  A(95,97,98)           119.6519         estimate D2E/DX2                !
 ! A187  A(95,97,99)           120.6912         estimate D2E/DX2                !
 ! A188  A(98,97,99)           119.6569         estimate D2E/DX2                !
 ! A189  A(97,99,100)          120.2195         estimate D2E/DX2                !
 ! A190  A(97,99,101)          120.9333         estimate D2E/DX2                !
 ! A191  A(100,99,101)         118.8472         estimate D2E/DX2                !
 ! A192  A(93,101,99)          116.9954         estimate D2E/DX2                !
 ! A193  A(93,101,106)         120.4194         estimate D2E/DX2                !
 ! A194  A(99,101,106)         122.5844         estimate D2E/DX2                !
 ! A195  A(94,102,103)         111.7572         estimate D2E/DX2                !
 ! A196  A(94,102,104)         111.4586         estimate D2E/DX2                !
 ! A197  A(94,102,105)         111.179          estimate D2E/DX2                !
 ! A198  A(103,102,104)        108.1239         estimate D2E/DX2                !
 ! A199  A(103,102,105)        106.3397         estimate D2E/DX2                !
 ! A200  A(104,102,105)        107.7459         estimate D2E/DX2                !
 ! A201  A(101,106,107)        111.4013         estimate D2E/DX2                !
 ! A202  A(101,106,108)        111.3595         estimate D2E/DX2                !
 ! A203  A(101,106,109)        111.6878         estimate D2E/DX2                !
 ! A204  A(107,106,108)        107.8899         estimate D2E/DX2                !
 ! A205  A(107,106,109)        108.0555         estimate D2E/DX2                !
 ! A206  A(108,106,109)        106.2087         estimate D2E/DX2                !
 ! A207  L(4,1,5,29,-1)        170.8162         estimate D2E/DX2                !
 ! A208  L(29,1,74,4,-1)       176.6997         estimate D2E/DX2                !
 ! A209  L(62,1,92,4,-1)       182.5839         estimate D2E/DX2                !
 ! A210  L(74,6,75,11,-1)      179.149          estimate D2E/DX2                !
 ! A211  L(92,7,93,12,-1)      178.9166         estimate D2E/DX2                !
 ! A212  L(1,74,6,9,-1)        184.8833         estimate D2E/DX2                !
 ! A213  L(1,92,7,9,-1)        181.0765         estimate D2E/DX2                !
 ! A214  L(4,1,5,29,-2)        171.5445         estimate D2E/DX2                !
 ! A215  L(29,1,74,4,-2)       188.8553         estimate D2E/DX2                !
 ! A216  L(62,1,92,4,-2)       172.5918         estimate D2E/DX2                !
 ! A217  L(74,6,75,11,-2)      180.3446         estimate D2E/DX2                !
 ! A218  L(92,7,93,12,-2)      182.9463         estimate D2E/DX2                !
 ! A219  L(1,74,6,9,-2)        184.3927         estimate D2E/DX2                !
 ! A220  L(1,92,7,9,-2)        176.029          estimate D2E/DX2                !
 ! D1    D(29,1,4,8)           163.5871         estimate D2E/DX2                !
 ! D2    D(29,1,4,28)          -21.2056         estimate D2E/DX2                !
 ! D3    D(62,1,4,8)          -112.7602         estimate D2E/DX2                !
 ! D4    D(62,1,4,28)           62.4471         estimate D2E/DX2                !
 ! D5    D(74,1,4,8)           -25.2682         estimate D2E/DX2                !
 ! D6    D(74,1,4,28)          149.9391         estimate D2E/DX2                !
 ! D7    D(92,1,4,8)            74.648          estimate D2E/DX2                !
 ! D8    D(92,1,4,28)         -110.1447         estimate D2E/DX2                !
 ! D9    D(29,1,5,41)         -112.7604         estimate D2E/DX2                !
 ! D10   D(29,1,5,61)           62.1803         estimate D2E/DX2                !
 ! D11   D(62,1,5,41)          163.6239         estimate D2E/DX2                !
 ! D12   D(62,1,5,61)          -21.4354         estimate D2E/DX2                !
 ! D13   D(74,1,5,41)           76.3616         estimate D2E/DX2                !
 ! D14   D(74,1,5,61)         -108.6978         estimate D2E/DX2                !
 ! D15   D(92,1,5,41)          -23.4173         estimate D2E/DX2                !
 ! D16   D(92,1,5,61)          151.5234         estimate D2E/DX2                !
 ! D17   D(4,1,29,30)         -167.7014         estimate D2E/DX2                !
 ! D18   D(4,1,29,40)           17.0749         estimate D2E/DX2                !
 ! D19   D(5,1,29,30)           20.7541         estimate D2E/DX2                !
 ! D20   D(5,1,29,40)         -154.4696         estimate D2E/DX2                !
 ! D21   D(62,1,29,30)          98.0656         estimate D2E/DX2                !
 ! D22   D(62,1,29,40)         -77.1581         estimate D2E/DX2                !
 ! D23   D(92,1,29,30)         -77.8172         estimate D2E/DX2                !
 ! D24   D(92,1,29,40)         106.9591         estimate D2E/DX2                !
 ! D25   D(4,1,62,63)           22.8196         estimate D2E/DX2                !
 ! D26   D(4,1,62,73)         -155.1203         estimate D2E/DX2                !
 ! D27   D(5,1,62,63)         -165.4246         estimate D2E/DX2                !
 ! D28   D(5,1,62,73)           16.6356         estimate D2E/DX2                !
 ! D29   D(29,1,62,63)         100.181          estimate D2E/DX2                !
 ! D30   D(29,1,62,73)         -77.7589         estimate D2E/DX2                !
 ! D31   D(74,1,62,63)         -76.0217         estimate D2E/DX2                !
 ! D32   D(74,1,62,73)         106.0384         estimate D2E/DX2                !
 ! D33   D(4,1,75,76)          -86.5144         estimate D2E/DX2                !
 ! D34   D(4,1,75,83)           94.3927         estimate D2E/DX2                !
 ! D35   D(5,1,75,76)           83.2866         estimate D2E/DX2                !
 ! D36   D(5,1,75,83)          -95.8063         estimate D2E/DX2                !
 ! D37   D(62,1,75,76)           5.3581         estimate D2E/DX2                !
 ! D38   D(62,1,75,83)        -173.7348         estimate D2E/DX2                !
 ! D39   D(92,1,75,76)        -178.5248         estimate D2E/DX2                !
 ! D40   D(92,1,75,83)           2.3823         estimate D2E/DX2                !
 ! D41   D(4,1,93,94)          -93.6912         estimate D2E/DX2                !
 ! D42   D(4,1,93,101)          86.8439         estimate D2E/DX2                !
 ! D43   D(5,1,93,94)           95.8059         estimate D2E/DX2                !
 ! D44   D(5,1,93,101)         -83.6591         estimate D2E/DX2                !
 ! D45   D(29,1,93,94)        -171.4423         estimate D2E/DX2                !
 ! D46   D(29,1,93,101)          9.0927         estimate D2E/DX2                !
 ! D47   D(74,1,93,94)           5.2981         estimate D2E/DX2                !
 ! D48   D(74,1,93,101)       -174.1669         estimate D2E/DX2                !
 ! D49   D(40,2,39,30)           0.4791         estimate D2E/DX2                !
 ! D50   D(40,2,39,37)         179.7308         estimate D2E/DX2                !
 ! D51   D(39,2,40,28)        -171.0483         estimate D2E/DX2                !
 ! D52   D(39,2,40,29)          -0.0509         estimate D2E/DX2                !
 ! D53   D(73,3,72,63)           0.1189         estimate D2E/DX2                !
 ! D54   D(73,3,72,70)         179.0145         estimate D2E/DX2                !
 ! D55   D(72,3,73,61)        -169.6333         estimate D2E/DX2                !
 ! D56   D(72,3,73,62)          -0.0599         estimate D2E/DX2                !
 ! D57   D(1,4,8,9)            -18.2941         estimate D2E/DX2                !
 ! D58   D(1,4,8,17)           164.4105         estimate D2E/DX2                !
 ! D59   D(28,4,8,9)           166.8418         estimate D2E/DX2                !
 ! D60   D(28,4,8,17)          -10.4536         estimate D2E/DX2                !
 ! D61   D(1,4,28,27)         -159.222          estimate D2E/DX2                !
 ! D62   D(1,4,28,40)           20.697          estimate D2E/DX2                !
 ! D63   D(8,4,28,27)           16.2406         estimate D2E/DX2                !
 ! D64   D(8,4,28,40)         -163.8405         estimate D2E/DX2                !
 ! D65   D(1,5,41,42)          -19.7852         estimate D2E/DX2                !
 ! D66   D(1,5,41,50)          163.2069         estimate D2E/DX2                !
 ! D67   D(61,5,41,42)         165.6333         estimate D2E/DX2                !
 ! D68   D(61,5,41,50)         -11.3747         estimate D2E/DX2                !
 ! D69   D(1,5,61,60)         -158.0032         estimate D2E/DX2                !
 ! D70   D(1,5,61,73)           21.5721         estimate D2E/DX2                !
 ! D71   D(41,5,61,60)          17.2378         estimate D2E/DX2                !
 ! D72   D(41,5,61,73)        -163.187          estimate D2E/DX2                !
 ! D73   D(4,8,9,10)            -1.4747         estimate D2E/DX2                !
 ! D74   D(4,8,9,11)          -178.5244         estimate D2E/DX2                !
 ! D75   D(17,8,9,10)          175.8684         estimate D2E/DX2                !
 ! D76   D(17,8,9,11)           -1.1814         estimate D2E/DX2                !
 ! D77   D(4,8,17,15)          179.0768         estimate D2E/DX2                !
 ! D78   D(4,8,17,18)           -1.6056         estimate D2E/DX2                !
 ! D79   D(9,8,17,15)            1.743          estimate D2E/DX2                !
 ! D80   D(9,8,17,18)         -178.9394         estimate D2E/DX2                !
 ! D81   D(8,9,11,12)          178.7548         estimate D2E/DX2                !
 ! D82   D(8,9,11,13)           -0.3485         estimate D2E/DX2                !
 ! D83   D(10,9,11,12)           1.7015         estimate D2E/DX2                !
 ! D84   D(10,9,11,13)        -177.4018         estimate D2E/DX2                !
 ! D85   D(9,11,13,14)        -179.6943         estimate D2E/DX2                !
 ! D86   D(9,11,13,15)           1.2985         estimate D2E/DX2                !
 ! D87   D(12,11,13,14)          1.209          estimate D2E/DX2                !
 ! D88   D(12,11,13,15)       -177.7981         estimate D2E/DX2                !
 ! D89   D(11,13,15,16)        178.5408         estimate D2E/DX2                !
 ! D90   D(11,13,15,17)         -0.6995         estimate D2E/DX2                !
 ! D91   D(14,13,15,16)         -0.469          estimate D2E/DX2                !
 ! D92   D(14,13,15,17)       -179.7094         estimate D2E/DX2                !
 ! D93   D(13,15,17,8)          -0.825          estimate D2E/DX2                !
 ! D94   D(13,15,17,18)        179.8874         estimate D2E/DX2                !
 ! D95   D(16,15,17,8)         179.9364         estimate D2E/DX2                !
 ! D96   D(16,15,17,18)          0.6488         estimate D2E/DX2                !
 ! D97   D(8,17,18,19)        -171.8672         estimate D2E/DX2                !
 ! D98   D(8,17,18,27)           7.418          estimate D2E/DX2                !
 ! D99   D(15,17,18,19)          7.4208         estimate D2E/DX2                !
 ! D100  D(15,17,18,27)       -173.294          estimate D2E/DX2                !
 ! D101  D(17,18,19,20)         -0.5006         estimate D2E/DX2                !
 ! D102  D(17,18,19,21)        178.406          estimate D2E/DX2                !
 ! D103  D(27,18,19,20)       -179.7841         estimate D2E/DX2                !
 ! D104  D(27,18,19,21)         -0.8776         estimate D2E/DX2                !
 ! D105  D(17,18,27,25)       -177.2148         estimate D2E/DX2                !
 ! D106  D(17,18,27,28)         -1.9502         estimate D2E/DX2                !
 ! D107  D(19,18,27,25)          2.0975         estimate D2E/DX2                !
 ! D108  D(19,18,27,28)        177.3621         estimate D2E/DX2                !
 ! D109  D(18,19,21,22)       -179.544          estimate D2E/DX2                !
 ! D110  D(18,19,21,23)         -0.8225         estimate D2E/DX2                !
 ! D111  D(20,19,21,22)         -0.6301         estimate D2E/DX2                !
 ! D112  D(20,19,21,23)        178.0914         estimate D2E/DX2                !
 ! D113  D(19,21,23,24)       -177.6544         estimate D2E/DX2                !
 ! D114  D(19,21,23,25)          1.2787         estimate D2E/DX2                !
 ! D115  D(22,21,23,24)          1.0635         estimate D2E/DX2                !
 ! D116  D(22,21,23,25)        179.9966         estimate D2E/DX2                !
 ! D117  D(21,23,25,26)       -176.3649         estimate D2E/DX2                !
 ! D118  D(21,23,25,27)         -0.0095         estimate D2E/DX2                !
 ! D119  D(24,23,25,26)          2.5737         estimate D2E/DX2                !
 ! D120  D(24,23,25,27)        178.9291         estimate D2E/DX2                !
 ! D121  D(23,25,27,18)         -1.6798         estimate D2E/DX2                !
 ! D122  D(23,25,27,28)       -176.795          estimate D2E/DX2                !
 ! D123  D(26,25,27,18)        174.5958         estimate D2E/DX2                !
 ! D124  D(26,25,27,28)         -0.5194         estimate D2E/DX2                !
 ! D125  D(18,27,28,4)          -9.9084         estimate D2E/DX2                !
 ! D126  D(18,27,28,40)        170.184          estimate D2E/DX2                !
 ! D127  D(25,27,28,4)         165.2054         estimate D2E/DX2                !
 ! D128  D(25,27,28,40)        -14.7022         estimate D2E/DX2                !
 ! D129  D(4,28,40,2)          164.5334         estimate D2E/DX2                !
 ! D130  D(4,28,40,29)          -6.0216         estimate D2E/DX2                !
 ! D131  D(27,28,40,2)         -15.5534         estimate D2E/DX2                !
 ! D132  D(27,28,40,29)        173.8916         estimate D2E/DX2                !
 ! D133  D(1,29,30,31)           7.8366         estimate D2E/DX2                !
 ! D134  D(1,29,30,39)        -174.4609         estimate D2E/DX2                !
 ! D135  D(40,29,30,31)       -176.9492         estimate D2E/DX2                !
 ! D136  D(40,29,30,39)          0.7534         estimate D2E/DX2                !
 ! D137  D(1,29,40,2)          176.034          estimate D2E/DX2                !
 ! D138  D(1,29,40,28)         -12.0625         estimate D2E/DX2                !
 ! D139  D(30,29,40,2)          -0.3897         estimate D2E/DX2                !
 ! D140  D(30,29,40,28)        171.5138         estimate D2E/DX2                !
 ! D141  D(29,30,31,32)          1.3015         estimate D2E/DX2                !
 ! D142  D(29,30,31,33)        179.7414         estimate D2E/DX2                !
 ! D143  D(39,30,31,32)       -176.2919         estimate D2E/DX2                !
 ! D144  D(39,30,31,33)          2.148          estimate D2E/DX2                !
 ! D145  D(29,30,39,2)          -0.7914         estimate D2E/DX2                !
 ! D146  D(29,30,39,37)        179.9221         estimate D2E/DX2                !
 ! D147  D(31,30,39,2)         177.2069         estimate D2E/DX2                !
 ! D148  D(31,30,39,37)         -2.0796         estimate D2E/DX2                !
 ! D149  D(30,31,33,34)        179.783          estimate D2E/DX2                !
 ! D150  D(30,31,33,35)         -0.6893         estimate D2E/DX2                !
 ! D151  D(32,31,33,34)         -1.7797         estimate D2E/DX2                !
 ! D152  D(32,31,33,35)        177.748          estimate D2E/DX2                !
 ! D153  D(31,33,35,36)        179.8492         estimate D2E/DX2                !
 ! D154  D(31,33,35,37)         -0.9714         estimate D2E/DX2                !
 ! D155  D(34,33,35,36)         -0.6227         estimate D2E/DX2                !
 ! D156  D(34,33,35,37)        178.5567         estimate D2E/DX2                !
 ! D157  D(33,35,37,38)       -178.6728         estimate D2E/DX2                !
 ! D158  D(33,35,37,39)          1.055          estimate D2E/DX2                !
 ! D159  D(36,35,37,38)          0.5097         estimate D2E/DX2                !
 ! D160  D(36,35,37,39)       -179.7625         estimate D2E/DX2                !
 ! D161  D(35,37,39,2)        -178.6921         estimate D2E/DX2                !
 ! D162  D(35,37,39,30)          0.4904         estimate D2E/DX2                !
 ! D163  D(38,37,39,2)           1.0352         estimate D2E/DX2                !
 ! D164  D(38,37,39,30)       -179.7822         estimate D2E/DX2                !
 ! D165  D(5,41,42,43)          -1.6536         estimate D2E/DX2                !
 ! D166  D(5,41,42,44)        -178.6064         estimate D2E/DX2                !
 ! D167  D(50,41,42,43)        175.4076         estimate D2E/DX2                !
 ! D168  D(50,41,42,44)         -1.5451         estimate D2E/DX2                !
 ! D169  D(5,41,50,48)         179.0195         estimate D2E/DX2                !
 ! D170  D(5,41,50,51)          -1.6129         estimate D2E/DX2                !
 ! D171  D(42,41,50,48)          1.9667         estimate D2E/DX2                !
 ! D172  D(42,41,50,51)       -178.6657         estimate D2E/DX2                !
 ! D173  D(41,42,44,45)        178.8795         estimate D2E/DX2                !
 ! D174  D(41,42,44,46)         -0.11           estimate D2E/DX2                !
 ! D175  D(43,42,44,45)          1.9196         estimate D2E/DX2                !
 ! D176  D(43,42,44,46)       -177.0699         estimate D2E/DX2                !
 ! D177  D(42,44,46,47)       -179.8073         estimate D2E/DX2                !
 ! D178  D(42,44,46,48)          1.3294         estimate D2E/DX2                !
 ! D179  D(45,44,46,47)          1.2111         estimate D2E/DX2                !
 ! D180  D(45,44,46,48)       -177.6521         estimate D2E/DX2                !
 ! D181  D(44,46,48,49)        178.2331         estimate D2E/DX2                !
 ! D182  D(44,46,48,50)         -0.8684         estimate D2E/DX2                !
 ! D183  D(47,46,48,49)         -0.6332         estimate D2E/DX2                !
 ! D184  D(47,46,48,50)       -179.7348         estimate D2E/DX2                !
 ! D185  D(46,48,50,41)         -0.7866         estimate D2E/DX2                !
 ! D186  D(46,48,50,51)        179.8739         estimate D2E/DX2                !
 ! D187  D(49,48,50,41)       -179.8869         estimate D2E/DX2                !
 ! D188  D(49,48,50,51)          0.7735         estimate D2E/DX2                !
 ! D189  D(41,50,51,52)       -170.9141         estimate D2E/DX2                !
 ! D190  D(41,50,51,60)          8.2712         estimate D2E/DX2                !
 ! D191  D(48,50,51,52)          8.4262         estimate D2E/DX2                !
 ! D192  D(48,50,51,60)       -172.3885         estimate D2E/DX2                !
 ! D193  D(50,51,52,53)         -0.3853         estimate D2E/DX2                !
 ! D194  D(50,51,52,54)        178.4114         estimate D2E/DX2                !
 ! D195  D(60,51,52,53)       -179.5685         estimate D2E/DX2                !
 ! D196  D(60,51,52,54)         -0.7718         estimate D2E/DX2                !
 ! D197  D(50,51,60,58)       -177.3563         estimate D2E/DX2                !
 ! D198  D(50,51,60,61)         -2.752          estimate D2E/DX2                !
 ! D199  D(52,51,60,58)          1.861          estimate D2E/DX2                !
 ! D200  D(52,51,60,61)        176.4653         estimate D2E/DX2                !
 ! D201  D(51,52,54,55)       -179.4766         estimate D2E/DX2                !
 ! D202  D(51,52,54,56)         -0.7517         estimate D2E/DX2                !
 ! D203  D(53,52,54,55)         -0.672          estimate D2E/DX2                !
 ! D204  D(53,52,54,56)        178.0529         estimate D2E/DX2                !
 ! D205  D(52,54,56,57)       -177.7021         estimate D2E/DX2                !
 ! D206  D(52,54,56,58)          1.1678         estimate D2E/DX2                !
 ! D207  D(55,54,56,57)          1.0192         estimate D2E/DX2                !
 ! D208  D(55,54,56,58)        179.8891         estimate D2E/DX2                !
 ! D209  D(54,56,58,59)       -176.3216         estimate D2E/DX2                !
 ! D210  D(54,56,58,60)         -0.0374         estimate D2E/DX2                !
 ! D211  D(57,56,58,59)          2.554          estimate D2E/DX2                !
 ! D212  D(57,56,58,60)        178.8383         estimate D2E/DX2                !
 ! D213  D(56,58,60,51)         -1.4784         estimate D2E/DX2                !
 ! D214  D(56,58,60,61)       -175.92           estimate D2E/DX2                !
 ! D215  D(59,58,60,51)        174.7284         estimate D2E/DX2                !
 ! D216  D(59,58,60,61)          0.2868         estimate D2E/DX2                !
 ! D217  D(51,60,61,5)         -10.0371         estimate D2E/DX2                !
 ! D218  D(51,60,61,73)        170.4466         estimate D2E/DX2                !
 ! D219  D(58,60,61,5)         164.4103         estimate D2E/DX2                !
 ! D220  D(58,60,61,73)        -15.1059         estimate D2E/DX2                !
 ! D221  D(5,61,73,3)          161.6768         estimate D2E/DX2                !
 ! D222  D(5,61,73,62)          -7.3854         estimate D2E/DX2                !
 ! D223  D(60,61,73,3)         -18.7772         estimate D2E/DX2                !
 ! D224  D(60,61,73,62)        172.1606         estimate D2E/DX2                !
 ! D225  D(1,62,63,64)           5.075          estimate D2E/DX2                !
 ! D226  D(1,62,63,72)        -177.8313         estimate D2E/DX2                !
 ! D227  D(73,62,63,64)       -176.9879         estimate D2E/DX2                !
 ! D228  D(73,62,63,72)          0.1057         estimate D2E/DX2                !
 ! D229  D(1,62,73,3)          178.4422         estimate D2E/DX2                !
 ! D230  D(1,62,73,61)         -10.9736         estimate D2E/DX2                !
 ! D231  D(63,62,73,3)          -0.0152         estimate D2E/DX2                !
 ! D232  D(63,62,73,61)        170.569          estimate D2E/DX2                !
 ! D233  D(62,63,64,65)          0.3822         estimate D2E/DX2                !
 ! D234  D(62,63,64,66)        178.7538         estimate D2E/DX2                !
 ! D235  D(72,63,64,65)       -176.5718         estimate D2E/DX2                !
 ! D236  D(72,63,64,66)          1.7998         estimate D2E/DX2                !
 ! D237  D(62,63,72,3)          -0.1509         estimate D2E/DX2                !
 ! D238  D(62,63,72,70)       -179.0978         estimate D2E/DX2                !
 ! D239  D(64,63,72,3)         177.3153         estimate D2E/DX2                !
 ! D240  D(64,63,72,70)         -1.6316         estimate D2E/DX2                !
 ! D241  D(63,64,66,67)        179.9261         estimate D2E/DX2                !
 ! D242  D(63,64,66,68)         -0.69           estimate D2E/DX2                !
 ! D243  D(65,64,66,67)         -1.7063         estimate D2E/DX2                !
 ! D244  D(65,64,66,68)        177.6776         estimate D2E/DX2                !
 ! D245  D(64,66,68,69)       -179.9731         estimate D2E/DX2                !
 ! D246  D(64,66,68,70)         -0.6945         estimate D2E/DX2                !
 ! D247  D(67,66,68,69)         -0.5885         estimate D2E/DX2                !
 ! D248  D(67,66,68,70)        178.6901         estimate D2E/DX2                !
 ! D249  D(66,68,70,71)       -178.7732         estimate D2E/DX2                !
 ! D250  D(66,68,70,72)          0.8741         estimate D2E/DX2                !
 ! D251  D(69,68,70,71)          0.5081         estimate D2E/DX2                !
 ! D252  D(69,68,70,72)       -179.8446         estimate D2E/DX2                !
 ! D253  D(68,70,72,3)        -178.489          estimate D2E/DX2                !
 ! D254  D(68,70,72,63)          0.305          estimate D2E/DX2                !
 ! D255  D(71,70,72,3)           1.1578         estimate D2E/DX2                !
 ! D256  D(71,70,72,63)        179.9517         estimate D2E/DX2                !
 ! D257  D(6,75,76,77)         179.8282         estimate D2E/DX2                !
 ! D258  D(6,75,76,84)          -0.1203         estimate D2E/DX2                !
 ! D259  D(83,75,76,77)         -0.4434         estimate D2E/DX2                !
 ! D260  D(83,75,76,84)        179.6082         estimate D2E/DX2                !
 ! D261  D(6,75,83,81)        -179.6844         estimate D2E/DX2                !
 ! D262  D(6,75,83,88)           1.2488         estimate D2E/DX2                !
 ! D263  D(76,75,83,81)          0.5875         estimate D2E/DX2                !
 ! D264  D(76,75,83,88)       -178.4793         estimate D2E/DX2                !
 ! D265  D(75,76,77,78)       -179.9906         estimate D2E/DX2                !
 ! D266  D(75,76,77,79)          0.0087         estimate D2E/DX2                !
 ! D267  D(84,76,77,78)         -0.0433         estimate D2E/DX2                !
 ! D268  D(84,76,77,79)        179.9559         estimate D2E/DX2                !
 ! D269  D(75,76,84,85)       -177.8085         estimate D2E/DX2                !
 ! D270  D(75,76,84,86)         61.6253         estimate D2E/DX2                !
 ! D271  D(75,76,84,87)        -56.9288         estimate D2E/DX2                !
 ! D272  D(77,76,84,85)          2.246          estimate D2E/DX2                !
 ! D273  D(77,76,84,86)       -118.3202         estimate D2E/DX2                !
 ! D274  D(77,76,84,87)        123.1257         estimate D2E/DX2                !
 ! D275  D(76,77,79,80)       -179.8585         estimate D2E/DX2                !
 ! D276  D(76,77,79,81)          0.2573         estimate D2E/DX2                !
 ! D277  D(78,77,79,80)          0.1407         estimate D2E/DX2                !
 ! D278  D(78,77,79,81)       -179.7435         estimate D2E/DX2                !
 ! D279  D(77,79,81,82)        179.744          estimate D2E/DX2                !
 ! D280  D(77,79,81,83)         -0.1038         estimate D2E/DX2                !
 ! D281  D(80,79,81,82)         -0.1402         estimate D2E/DX2                !
 ! D282  D(80,79,81,83)       -179.9879         estimate D2E/DX2                !
 ! D283  D(79,81,83,75)         -0.3011         estimate D2E/DX2                !
 ! D284  D(79,81,83,88)        178.7453         estimate D2E/DX2                !
 ! D285  D(82,81,83,75)        179.8491         estimate D2E/DX2                !
 ! D286  D(82,81,83,88)         -1.1045         estimate D2E/DX2                !
 ! D287  D(75,83,88,89)       -174.2389         estimate D2E/DX2                !
 ! D288  D(75,83,88,90)         65.6679         estimate D2E/DX2                !
 ! D289  D(75,83,88,91)        -53.0211         estimate D2E/DX2                !
 ! D290  D(81,83,88,89)          6.747          estimate D2E/DX2                !
 ! D291  D(81,83,88,90)       -113.3461         estimate D2E/DX2                !
 ! D292  D(81,83,88,91)        127.9649         estimate D2E/DX2                !
 ! D293  D(7,93,94,95)        -179.7644         estimate D2E/DX2                !
 ! D294  D(7,93,94,102)          0.9208         estimate D2E/DX2                !
 ! D295  D(101,93,94,95)         0.1877         estimate D2E/DX2                !
 ! D296  D(101,93,94,102)     -179.1271         estimate D2E/DX2                !
 ! D297  D(7,93,101,99)        179.8912         estimate D2E/DX2                !
 ! D298  D(7,93,101,106)         0.2056         estimate D2E/DX2                !
 ! D299  D(94,93,101,99)        -0.0607         estimate D2E/DX2                !
 ! D300  D(94,93,101,106)     -179.7464         estimate D2E/DX2                !
 ! D301  D(93,94,95,96)        179.9597         estimate D2E/DX2                !
 ! D302  D(93,94,95,97)         -0.183          estimate D2E/DX2                !
 ! D303  D(102,94,95,96)        -0.7416         estimate D2E/DX2                !
 ! D304  D(102,94,95,97)       179.1158         estimate D2E/DX2                !
 ! D305  D(93,94,102,103)      -53.7169         estimate D2E/DX2                !
 ! D306  D(93,94,102,104)     -174.8319         estimate D2E/DX2                !
 ! D307  D(93,94,102,105)       64.935          estimate D2E/DX2                !
 ! D308  D(95,94,102,103)      127.0077         estimate D2E/DX2                !
 ! D309  D(95,94,102,104)        5.8926         estimate D2E/DX2                !
 ! D310  D(95,94,102,105)     -114.3405         estimate D2E/DX2                !
 ! D311  D(94,95,97,98)       -179.8963         estimate D2E/DX2                !
 ! D312  D(94,95,97,99)          0.0583         estimate D2E/DX2                !
 ! D313  D(96,95,97,98)         -0.0409         estimate D2E/DX2                !
 ! D314  D(96,95,97,99)        179.9137         estimate D2E/DX2                !
 ! D315  D(95,97,99,100)      -179.9755         estimate D2E/DX2                !
 ! D316  D(95,97,99,101)         0.077          estimate D2E/DX2                !
 ! D317  D(98,97,99,100)        -0.0208         estimate D2E/DX2                !
 ! D318  D(98,97,99,101)      -179.9684         estimate D2E/DX2                !
 ! D319  D(97,99,101,93)        -0.0746         estimate D2E/DX2                !
 ! D320  D(97,99,101,106)      179.6037         estimate D2E/DX2                !
 ! D321  D(100,99,101,93)      179.9772         estimate D2E/DX2                !
 ! D322  D(100,99,101,106)      -0.3445         estimate D2E/DX2                !
 ! D323  D(93,101,106,107)    -177.6133         estimate D2E/DX2                !
 ! D324  D(93,101,106,108)      61.8862         estimate D2E/DX2                !
 ! D325  D(93,101,106,109)     -56.6746         estimate D2E/DX2                !
 ! D326  D(99,101,106,107)       2.7191         estimate D2E/DX2                !
 ! D327  D(99,101,106,108)    -117.7814         estimate D2E/DX2                !
 ! D328  D(99,101,106,109)     123.6578         estimate D2E/DX2                !
 --------------------------------------------------------------------------------
 Trust Radius=3.00D-01 FncErr=5.00D-06 GrdErr=5.00D-06 EigMax=2.50D+02 EigMin=1.00D-04
 Number of steps in this run=    654 maximum allowed number of steps=    654.
 GradGradGradGradGradGradGradGradGradGradGradGradGradGradGradGradGradGrad

 Leave Link  103 at Mon Oct 30 13:32:23 2023, MaxMem=  2831155200 cpu:               0.1 elap:               0.0
 (Enter /opt/software/packages/g16/l202.exe)
 Symmetry turned off by external request.
 Stoichiometry    C60H42IrN4S2
                          Input orientation:                          
 ---------------------------------------------------------------------
 Center     Atomic      Atomic             Coordinates (Angstroms)
 Number     Number       Type             X           Y           Z
 ---------------------------------------------------------------------
      1         77           0       -0.004541    0.093416   -0.032806
      2         16           0        0.234362   -3.222478   -3.138215
      3         16           0        0.110306   -3.511174    2.744900
      4          7           0        1.725571    0.016229   -1.281681
      5          7           0       -1.711737   -0.290912    1.196208
[...]
 Alpha virt. eigenvalues --    1.02080   1.03047   1.03218   1.04159   1.05631
 Alpha virt. eigenvalues --    1.06252   1.06316   1.06739   1.07393   1.08091
 Alpha virt. eigenvalues --    1.08278   1.08901   1.09063   1.09186   1.09566
 Alpha virt. eigenvalues --    1.10957   1.11275   1.11854   1.12417   1.12672
 Alpha virt. eigenvalues --    1.13625   1.13902   1.14419   1.14577   1.14666
 Alpha virt. eigenvalues --    1.15185   1.15570   1.15914   1.16331   1.16383
 Alpha virt. eigenvalues --    1.16775   1.17098   1.17241   1.17840   1.17958
 Alpha virt. eigenvalues --    1.18361   1.19032   1.19325   1.19616   1.20023
 Alpha virt. eigenvalues --    1.20468   1.20516   1.21297   1.21570   1.21680
 Alpha virt. eigenvalues --    1.21809   1.22029   1.22643   1.23229   1.23274
 Alpha virt. eigenvalues --    1.23506   1.23695   1.23946   1.23971   1.24164
 Alpha virt. eigenvalues --    1.24413   1.24427   1.24904   1.25050   1.25184
 Alpha virt. eigenvalues --    1.25394   1.26489   1.26611   1.27131   1.27150
 Alpha virt. eigenvalues --    1.27550   1.27625   1.28041   1.28147   1.28442
 Alpha virt. eigenvalues --    1.28499   1.28535   1.28888   1.29134   1.29191
 Alpha virt. eigenvalues --    1.29845   1.29932   1.30666   1.30994   1.31460
 Alpha virt. eigenvalues --    1.32405   1.32503   1.32954   1.33243   1.34229
 Alpha virt. eigenvalues --    1.34564   1.34627   1.34723   1.35178   1.35579
 Alpha virt. eigenvalues --    1.35605   1.36016   1.36515   1.36922   1.37580
 Alpha virt. eigenvalues --    1.37664   1.39157   1.39409   1.39515   1.41370
 Alpha virt. eigenvalues --    1.41789   1.42352   1.42743   1.43245   1.43569
 Alpha virt. eigenvalues --    1.45310   1.45536   1.48406   1.48659   1.49124
 Alpha virt. eigenvalues --    1.49512   1.49795   1.50162   1.50390   1.50803
 Alpha virt. eigenvalues --    1.51023   1.51724   1.52099   1.52168   1.52467
 Alpha virt. eigenvalues --    1.52584   1.52957   1.53284   1.53398   1.53979
 Alpha virt. eigenvalues --    1.54207   1.54382   1.54962   1.55748   1.55962
 Alpha virt. eigenvalues --    1.56062   1.56219   1.57583   1.57635   1.58273
 Alpha virt. eigenvalues --    1.58713   1.59566   1.59860   1.60736   1.62613
 Alpha virt. eigenvalues --    1.62811   1.63944   1.65777   1.65812   1.65945
 Alpha virt. eigenvalues --    1.66395   1.66553   1.66646   1.66982   1.67103
 Alpha virt. eigenvalues --    1.67659   1.67739   1.68399   1.68555   1.68640
 Alpha virt. eigenvalues --    1.68710   1.69095   1.69226   1.69497   1.69583
 Alpha virt. eigenvalues --    1.69827   1.69980   1.70321   1.70489   1.70515
 Alpha virt. eigenvalues --    1.70896   1.71034   1.71286   1.71413   1.71694
 Alpha virt. eigenvalues --    1.71840   1.72216   1.72400   1.72903   1.73005
 Alpha virt. eigenvalues --    1.73023   1.73415   1.73474   1.74220   1.74296
 Alpha virt. eigenvalues --    1.74446   1.74548   1.74859   1.75082   1.75296
 Alpha virt. eigenvalues --    1.75374   1.75411   1.75714   1.75879   1.76041
 Alpha virt. eigenvalues --    1.76162   1.76574   1.76703   1.76927   1.77003
 Alpha virt. eigenvalues --    1.77307   1.77608   1.77938   1.77992   1.78561
 Alpha virt. eigenvalues --    1.78609   1.78905   1.78981   1.79169   1.79295
 Alpha virt. eigenvalues --    1.79754   1.79794   1.79949   1.80231   1.80265
 Alpha virt. eigenvalues --    1.80570   1.80795   1.80822   1.81142   1.81213
 Alpha virt. eigenvalues --    1.81323   1.81614   1.81643   1.81778   1.82045
 Alpha virt. eigenvalues --    1.82152   1.82601   1.82920   1.83317   1.83768
 Alpha virt. eigenvalues --    1.83812   1.84496   1.84569   1.84951   1.85530
 Alpha virt. eigenvalues --    1.85984   1.86341   1.86586   1.87473   1.87497
 Alpha virt. eigenvalues --    1.88560   1.88824   1.88840   1.89098   1.89513
 Alpha virt. eigenvalues --    1.90078   1.90128   1.90326   1.90588   1.90674
 Alpha virt. eigenvalues --    1.90866   1.92536   1.93249   1.93505   1.94544
 Alpha virt. eigenvalues --    1.94718   1.94790   1.94860   1.94900   1.95549
 Alpha virt. eigenvalues --    1.95582   1.95831   1.95985   1.96805   1.96884
 Alpha virt. eigenvalues --    1.97474   1.97562   1.98097   1.98142   1.98605
 Alpha virt. eigenvalues --    1.98750   1.99058   1.99100   1.99646   1.99735
 Alpha virt. eigenvalues --    2.00410   2.01379   2.01467   2.01813   2.01967
 Alpha virt. eigenvalues --    2.02072   2.02598   2.02776   2.03376   2.03957
 Alpha virt. eigenvalues --    2.04185   2.04241   2.04613   2.04724   2.05339
 Alpha virt. eigenvalues --    2.05834   2.05904   2.06244   2.06842   2.07007
 Alpha virt. eigenvalues --    2.07342   2.07710   2.07968   2.08006   2.08540
 Alpha virt. eigenvalues --    2.08651   2.08902   2.09843   2.10112   2.10734
 Alpha virt. eigenvalues --    2.10852   2.10974   2.10983   2.11180   2.12422
 Alpha virt. eigenvalues --    2.12527   2.13066   2.13820   2.14101   2.14567
 Alpha virt. eigenvalues --    2.14717   2.14791   2.15343   2.15364   2.15556
 Alpha virt. eigenvalues --    2.15945   2.16671   2.16767   2.17278   2.17339
 Alpha virt. eigenvalues --    2.18202   2.18332   2.18663   2.19631   2.20021
 Alpha virt. eigenvalues --    2.20508   2.21253   2.21478   2.21802   2.22085
 Alpha virt. eigenvalues --    2.22746   2.22855   2.23230   2.23443   2.23828
 Alpha virt. eigenvalues --    2.24389   2.24518   2.24595   2.24700   2.24983
 Alpha virt. eigenvalues --    2.25075   2.25199   2.25797   2.26102   2.26275
 Alpha virt. eigenvalues --    2.26500   2.27411   2.27619   2.27885   2.27945
 Alpha virt. eigenvalues --    2.27980   2.28290   2.28395   2.28657   2.28723
 Alpha virt. eigenvalues --    2.29384   2.29628   2.30220   2.30861   2.30915
 Alpha virt. eigenvalues --    2.31698   2.31736   2.31900   2.32424   2.32697
 Alpha virt. eigenvalues --    2.32811   2.32887   2.34231   2.34536   2.34631
 Alpha virt. eigenvalues --    2.35777   2.36054   2.37023   2.37477   2.37560
 Alpha virt. eigenvalues --    2.37838   2.38035   2.38153   2.39328   2.39980
 Alpha virt. eigenvalues --    2.40231   2.40831   2.40948   2.41641   2.42349
 Alpha virt. eigenvalues --    2.42360   2.42567   2.43347   2.43585   2.44517
 Alpha virt. eigenvalues --    2.45090   2.45761   2.46959   2.48132   2.48421
 Alpha virt. eigenvalues --    2.49197   2.50014   2.51754   2.52143   2.52762
 Alpha virt. eigenvalues --    2.53041   2.53487   2.54267   2.55168   2.55190
 Alpha virt. eigenvalues --    2.55345   2.55727   2.56141   2.57176   2.57756
 Alpha virt. eigenvalues --    2.57932   2.58893   2.58958   2.59448   2.59465
 Alpha virt. eigenvalues --    2.59926   2.60042   2.60186   2.60262   2.60657
 Alpha virt. eigenvalues --    2.60788   2.61477   2.61847   2.62482   2.62720
 Alpha virt. eigenvalues --    2.62926   2.63304   2.63565   2.63666   2.63982
 Alpha virt. eigenvalues --    2.64270   2.64438   2.64444   2.65663   2.67568
 Alpha virt. eigenvalues --    2.67933   2.68138   2.69714   2.69768   2.70793
 Alpha virt. eigenvalues --    2.71912   2.72270   2.72798   2.72926   2.72938
 Alpha virt. eigenvalues --    2.73117   2.73627   2.73864   2.74046   2.74367
 Alpha virt. eigenvalues --    2.74459   2.74717   2.75588   2.75912   2.76229
 Alpha virt. eigenvalues --    2.76645   2.77568   2.78488   2.80311   2.81654
 Alpha virt. eigenvalues --    2.82008   2.82717   2.82794   2.83872   2.84145
 Alpha virt. eigenvalues --    2.84862   2.85255   2.85987   2.86385   2.87102
 Alpha virt. eigenvalues --    2.87168   2.87375   2.87741   2.91048   2.91398
 Alpha virt. eigenvalues --    2.92665   2.93396   2.93772   2.94166   2.94390
 Alpha virt. eigenvalues --    2.94437   2.94853   2.95236   2.95472   2.95672
 Alpha virt. eigenvalues --    2.96714   2.97778   2.98323   2.98350   2.98948
 Alpha virt. eigenvalues --    2.99081   3.00204   3.00249   3.00456   3.01837
 Alpha virt. eigenvalues --    3.02869   3.02879   3.03320   3.03741   3.03798
 Alpha virt. eigenvalues --    3.05150   3.06422   3.07428   3.08050   3.08302
 Alpha virt. eigenvalues --    3.08715   3.09798   3.10647   3.10716   3.11604
 Alpha virt. eigenvalues --    3.12073   3.17719   3.18030   3.18768   3.18939
 Alpha virt. eigenvalues --    3.24083   3.24430   3.28549   3.28565   3.34678
 Alpha virt. eigenvalues --    3.35881   3.47578   3.48532   3.50058   3.50212
 Alpha virt. eigenvalues --    3.53947   3.54233   3.57074   3.57126   3.66994
 Alpha virt. eigenvalues --    3.67187   3.81333   3.81541  57.62439 357.79248
          Condensed to atoms (all electrons):
 Mulliken charges:
               1
     1  Ir   0.135407
     2  S    0.095668
     3  S    0.095203
     4  N   -0.271825
     5  N   -0.272866
     6  N    0.073695
     7  N    0.072933
     8  C    0.130362
     9  C   -0.062700
    10  H    0.029044
    11  C    0.008202
    12  H    0.021128
    13  C    0.026212
    14  H    0.012392
    15  C   -0.072282
    16  H    0.007238
    17  C    0.078504
    18  C    0.102958
    19  C   -0.061765
    20  H    0.010164
    21  C    0.037739
    22  H    0.020235
    23  C    0.015626
    24  H    0.018742
    25  C   -0.049953
    26  H    0.002169
    27  C    0.023315
    28  C    0.180794
    29  C    0.025364
    30  C    0.046403
    31  C   -0.022308
    32  H    0.002303
    33  C   -0.003361
    34  H    0.006096
    35  C    0.006225
    36  H    0.016209
    37  C   -0.030455
    38  H    0.005521
    39  C   -0.060171
    40  C   -0.139231
    41  C    0.129435
    42  C   -0.062768
    43  H    0.029978
    44  C    0.007942
    45  H    0.021636
    46  C    0.026588
    47  H    0.012396
    48  C   -0.071891
    49  H    0.007300
    50  C    0.078016
    51  C    0.103005
    52  C   -0.061690
    53  H    0.010370
    54  C    0.037782
    55  H    0.020219
    56  C    0.015578
    57  H    0.018729
    58  C   -0.049967
    59  H    0.002267
    60  C    0.022454
    61  C    0.182443
    62  C    0.025445
    63  C    0.046475
    64  C   -0.024075
    65  H    0.003534
    66  C   -0.003732
    67  H    0.006156
    68  C    0.006491
    69  H    0.016218
    70  C   -0.030660
    71  H    0.005555
    72  C   -0.059813
    73  C   -0.140336
    74  C   -0.080384
    75  C    0.059872
    76  C   -0.065408
    77  C   -0.075789
    78  H    0.004019
    79  C    0.048951
    80  H    0.014396
    81  C   -0.077094
    82  H    0.003379
    83  C   -0.061986
    84  C    0.102472
    85  H    0.022308
    86  H    0.047190
    87  H    0.047352
    88  C    0.090860
    89  H    0.022423
    90  H    0.046286
    91  H    0.055298
    92  C   -0.079448
    93  C    0.060433
    94  C   -0.061453
    95  C   -0.077215
    96  H    0.003420
    97  C    0.049059
    98  H    0.014397
    99  C   -0.076013
   100  H    0.003977
   101  C   -0.065848
   102  C    0.089689
   103  H    0.054716
   104  H    0.022844
   105  H    0.047104
   106  C    0.102877
   107  H    0.021999
   108  H    0.047320
   109  H    0.047978
 Sum of Mulliken charges =   1.00000
 Mulliken charges with hydrogens summed into heavy atoms:
               1
     1  Ir   0.135407
     2  S    0.095668
     3  S    0.095203
     4  N   -0.271825
     5  N   -0.272866
     6  N    0.073695
     7  N    0.072933
     8  C    0.130362
     9  C   -0.033656
    11  C    0.029330
    13  C    0.038604
    15  C   -0.065043
    17  C    0.078504
    18  C    0.102958
    19  C   -0.051601
    21  C    0.057974
    23  C    0.034368
    25  C   -0.047784
    27  C    0.023315
    28  C    0.180794
    29  C    0.025364
    30  C    0.046403
    31  C   -0.020005
    33  C    0.002735
    35  C    0.022434
    37  C   -0.024934
    39  C   -0.060171
    40  C   -0.139231
    41  C    0.129435
    42  C   -0.032790
    44  C    0.029578
    46  C    0.038985
    48  C   -0.064591
    50  C    0.078016
    51  C    0.103005
    52  C   -0.051319
    54  C    0.058001
    56  C    0.034307
    58  C   -0.047700
    60  C    0.022454
    61  C    0.182443
    62  C    0.025445
    63  C    0.046475
    64  C   -0.020540
    66  C    0.002423
    68  C    0.022710
    70  C   -0.025105
    72  C   -0.059813
    73  C   -0.140336
    74  C   -0.080384
    75  C    0.059872
    76  C   -0.065408
    77  C   -0.071769
    79  C    0.063347
    81  C   -0.073715
    83  C   -0.061986
    84  C    0.219323
    88  C    0.214866
    92  C   -0.079448
    93  C    0.060433
    94  C   -0.061453
    95  C   -0.073796
    97  C    0.063456
    99  C   -0.072036
   101  C   -0.065848
   102  C    0.214353
   106  C    0.220173
 Electronic spatial extent (au):  <R**2>=          42691.7394
 Charge=              1.0000 electrons
 Dipole moment (field-independent basis, Debye):
    X=             -0.3374    Y=              7.1381    Z=             -0.0429  Tot=              7.1462
 Quadrupole moment (field-independent basis, Debye-Ang):
   XX=           -302.7396   YY=           -327.2660   ZZ=           -365.9687
   XY=              0.4557   XZ=             -7.6302   YZ=             -0.9408
 Traceless Quadrupole moment (field-independent basis, Debye-Ang):
   XX=             29.2518   YY=              4.7255   ZZ=            -33.9773
   XY=              0.4557   XZ=             -7.6302   YZ=             -0.9408
 Octapole moment (field-independent basis, Debye-Ang**2):
  XXX=              5.9064  YYY=            202.8390  ZZZ=              6.1300  XYY=            -12.0586
  XXY=            -69.6951  XXZ=            -13.7568  XZZ=              0.0566  YZZ=             20.6504
  YYZ=              4.0414  XYZ=            104.1637
 Hexadecapole moment (field-independent basis, Debye-Ang**3):
 XXXX=         -19133.3886 YYYY=         -17109.0766 ZZZZ=         -16857.8858 XXXY=            -34.5597
 XXXZ=          -1161.8426 YYYX=             38.8467 YYYZ=             39.4977 ZZZX=            682.2327
 ZZZY=             11.9549 XXYY=          -5906.3187 XXZZ=          -5352.3004 YYZZ=          -5167.5697
 XXYZ=            -77.6670 YYXZ=            225.0493 ZZXY=              9.6314
 N-N= 1.135585222403D+04 E-N=-3.063091122527D+04  KE= 3.330184615430D+03
 Leave Link  601 at Tue Oct 31 03:03:43 2023, MaxMem=  2831155200 cpu:               2.8 elap:               0.5
 (Enter /opt/software/packages/g16/l9999.exe)
 Unable to Open any file for archive entry.
 1\1\GINC-X1000C2S4B1N1\SP\RB3LYP TD-FC\Gen\C60H42Ir1N4S2(1+)\PNG4RJV\3
 1-Oct-2023\0\\#p b3lyp chkbasis geom=allcheck Guess=Read int=ultrafine
  scrf=(SMD,solvent=Acetonitrile) td=(NStates=60) EmpiricalDispersion=G
 D3BJ\\Title\\1,1\Ir,0,-0.017675664,0.0428438186,0.0294421906\S,0,0.250
 6093326,-3.1205274335,-3.2387421529\S,0,0.0047802515,-3.6631990134,2.6
 791215343\N,0,1.7307652712,0.0129147517,-1.173339064\N,0,-1.7480713271
 ,-0.3467260309,1.1905871894\N,0,1.1166101141,1.8874961945,2.3572803412
 \N,0,-1.2935597941,2.1411818604,-1.9894422768\C,0,2.7196904604,0.99167
 16409,-1.1942906417\C,0,2.4568526592,2.2876270949,-0.6914617911\H,0,1.
 4688838746,2.5287377783,-0.3142792645\C,0,3.4270360327,3.2741164436,-0
 .7192243948\H,0,3.1909757541,4.268136544,-0.3325920669\C,0,4.698868003
 2,3.0026751219,-1.2543588834\H,0,5.4668492808,3.7788387575,-1.27263607
 52\C,0,4.965948844,1.7502108384,-1.7807816818\H,0,5.9444267473,1.55778
 15787,-2.2203054142\C,0,3.9924778803,0.7247667746,-1.7750743254\C,0,4.
 2385767307,-0.5914576193,-2.3341379661\C,0,5.5110269016,-0.9989924597,
 -2.7939243996\H,0,6.3545357007,-0.3121606286,-2.7363369352\C,0,5.71136
 7157,-2.2708935451,-3.3039476564\H,0,6.7048538772,-2.5662601261,-3.649
 0490637\C,0,4.6466512954,-3.1891076192,-3.3568231386\H,0,4.811219003,-
 4.2029025206,-3.7274860824\C,0,3.3902897328,-2.8124747139,-2.917238027
 9\H,0,2.5959821142,-3.5560671639,-2.9147610133\C,0,3.1538236542,-1.509
 3843622,-2.4156975762\C,0,1.8613380315,-1.1150616199,-1.8946417249\C,0
 ,-0.4975559975,-1.388613964,-1.3858831612\C,0,-1.6968110649,-2.0585749
 426,-1.806274837\C,0,-3.0340722319,-1.8383961286,-1.4078172208\H,0,-3.
 2595633773,-1.0617436109,-0.6806998897\C,0,-4.0565354347,-2.5978488722
 ,-1.9610559106\H,0,-5.0886733013,-2.4257480496,-1.6476516774\C,0,-3.77
 65638413,-3.5864650449,-2.9271588\H,0,-4.5932909862,-4.1772629788,-3.3
 488754052\C,0,-2.4732328597,-3.8126833613,-3.3637472738\H,0,-2.2621528
 291,-4.5660063603,-4.1257723\C,0,-1.4434474225,-3.0431312251,-2.806847
 4814\C,0,0.6193910643,-1.8393823922,-2.0665884854\C,0,-2.8148549108,0.
 5278049427,1.3734593874\C,0,-2.6658987509,1.9073707696,1.0987127462\H,
 0,-1.7055328255,2.2894138345,0.7707947525\C,0,-3.7140483903,2.79050932
 54,1.2907364334\H,0,-3.5653436042,3.8519491364,1.0796473672\C,0,-4.952
 9850654,2.3271720125,1.76818978\H,0,-5.7821027053,3.0223422082,1.91567
 5131\C,0,-5.1097011438,0.9855716081,2.0726831765\H,0,-6.0637834052,0.6
 39523633,2.469502671\C,0,-4.0548455622,0.0608420504,1.8957947191\C,0,-
 4.1851021388,-1.347126782,2.2217391417\C,0,-5.4144224165,-1.9301627604
 ,2.6033514669\H,0,-6.3119442223,-1.3154043357,2.659687053\C,0,-5.50375
 44381,-3.2818827802,2.8909077823\H,0,-6.4653143194,-3.7124014532,3.179
 6575901\C,0,-4.3669217286,-4.1044567446,2.7890030836\H,0,-4.4434457056
 ,-5.1762677044,2.9829940302\C,0,-3.1511614274,-3.5566425912,2.42103141
 37\H,0,-2.2995499812,-4.2216793054,2.2938609589\C,0,-3.0277519008,-2.1
 723850761,2.1482052071\C,0,-1.7776484632,-1.5889364407,1.7064986321\C,
 0,0.5921735237,-1.5690853475,1.1749519891\C,0,1.8460573723,-2.20247032
 25,1.4759393065\C,0,3.1574834522,-1.8048496947,1.1328159826\H,0,3.3134
 857616,-0.8925276251,0.5619409904\C,0,4.2432568577,-2.566723096,1.5438
 218291\H,0,5.2550690303,-2.2566783377,1.2731670264\C,0,4.0533427479,-3
 .7347668383,2.3109889553\H,0,4.9191853,-4.3243176806,2.6219592238\C,0,
 2.7767597573,-4.1420627234,2.691497692\H,0,2.6344684921,-5.0366603396,
 3.3015491233\C,0,1.6828180207,-3.3702299389,2.2787199097\C,0,-0.478224
 6917,-2.2257071334,1.7563998992\C,0,0.6728064182,1.2509327523,1.485062
 7977\C,0,1.674108753,2.7064509852,3.3156271285\C,0,2.4891477323,2.1193
 66462,4.3058399194\C,0,3.049953443,2.9776380764,5.2582348234\H,0,3.687
 0563456,2.5578632884,6.0401488118\C,0,2.8051406731,4.3530655386,5.2148
 088131\H,0,3.2533048152,5.0056965186,5.9678960351\C,0,1.9948014469,4.9
 035723977,4.2174508609\H,0,1.8115032464,5.9802269723,4.191381984\C,0,1
 .4082635074,4.0907842457,3.2414447971\C,0,2.7351033697,0.6373357754,4.
 3040921388\H,0,3.3649978902,0.3420996111,5.1541301068\H,0,3.2362559132
 ,0.3201227565,3.3742651848\H,0,1.7883430304,0.0748014886,4.3588522439\
 C,0,0.5333036845,4.6376249809,2.1486603952\H,0,0.4367684523,5.72855152
 42,2.2299144799\H,0,-0.4759200298,4.1956113287,2.1906515863\H,0,0.9447
 917546,4.398370979,1.1544463272\C,0,-0.8122787943,1.4174384692,-1.2101
 365099\C,0,-1.8953807428,3.0281798133,-2.8558081931\C,0,-1.7783594155,
 4.4077370934,-2.5819879007\C,0,-2.4043882104,5.2876599162,-3.471406919
 6\H,0,-2.335392617,6.3628549098,-3.2905510636\C,0,-3.1097938951,4.8051
 094158,-4.5777151848\H,0,-3.5910070731,5.5093516033,-5.260621653\C,0,-
 3.2070093967,3.4318946427,-4.8196662789\H,0,-3.76179135,3.0653320376,-
 5.686469736\C,0,-2.6006421824,2.5079265815,-3.9613485305\C,0,-1.008737
 5019,4.8792319263,-1.3802586296\H,0,-1.4261723437,4.4575469713,-0.4512
 966017\H,0,-1.0292778045,5.9746110673,-1.3037565431\H,0,0.043628548,4.
 5544294211,-1.4328401755\C,0,-2.6849500884,1.0235294943,-4.1770003801\
 H,0,-3.2525145152,0.7900563272,-5.0879584077\H,0,-3.1762471851,0.52532
 19239,-3.3247596187\H,0,-1.681338034,0.5756498238,-4.2673687546\\Versi
 on=AS64L-G16RevC.02\State=1-A\HF=-3429.8357471\RMSD=4.667e-09\PG=C01 [
 X(C60H42Ir1N4S2)]\\@
 The archive entry for this job was punched.


 Discoveries are often made by not following instructions,
 by going off the main road, by trying the untried.
 -- Frank Tyger
 Job cpu time:       1 days 16 hours 42 minutes 30.3 seconds.
 Elapsed time:       0 days  3 hours 27 minutes 36.4 seconds.
 File lengths (MBytes):  RWF=  39003 Int=      0 D2E=      0 Chk=   2855 Scr=      1
 Normal termination of Gaussian 16 at Tue Oct 31 03:03:46 2023.
