
                                 *****************
                                 * O   R   C   A *
                                 *****************

                                            #,                                       
                                            ###                                      
                                            ####                                     
                                            #####                                    
                                            ######                                   
                                           ########,                                 
                                     ,,################,,,,,                         
                               ,,#################################,,                 
                          ,,##########################################,,             
                       ,#########################################, ''#####,          
                    ,#############################################,,   '####,        
                  ,##################################################,,,,####,       
                ,###########''''           ''''###############################       
              ,#####''   ,,,,##########,,,,          '''####'''          '####       
            ,##' ,,,,###########################,,,                        '##       
           ' ,,###''''                  '''############,,,                           
         ,,##''                                '''############,,,,        ,,,,,,###''
      ,#''                                            '''#######################'''  
     '                                                          ''''####''''         
             ,#######,   #######,   ,#######,      ##                                
            ,#'     '#,  ##    ##  ,#'     '#,    #''#        ######   ,####,        
            ##       ##  ##   ,#'  ##            #'  '#       #        #'  '#        
            ##       ##  #######   ##           ,######,      #####,   #    #        
            '#,     ,#'  ##    ##  '#,     ,#' ,#      #,         ##   #,  ,#        
             '#######'   ##     ##  '#######'  #'      '#     #####' # '####'        



                  #######################################################
                  #                        -***-                        #
                  #          Department of theory and spectroscopy      #
                  #    Directorship and core code : Frank Neese         #
                  #        Max Planck Institute fuer Kohlenforschung    #
                  #                Kaiser Wilhelm Platz 1               #
                  #                 D-45470 Muelheim/Ruhr               #
                  #                      Germany                        #
                  #                                                     #
                  #                  All rights reserved                #
                  #                        -***-                        #
                  #######################################################


                         Program Version 5.0.4 -  RELEASE  -


 With contributions from (in alphabetic order):
   Daniel Aravena         : Magnetic Suceptibility
   Michael Atanasov       : Ab Initio Ligand Field Theory (pilot matlab implementation)
   Alexander A. Auer      : GIAO ZORA, VPT2 properties, NMR spectrum
   Ute Becker             : Parallelization
   Giovanni Bistoni       : ED, misc. LED, open-shell LED, HFLD
   Martin Brehm           : Molecular dynamics
   Dmytro Bykov           : SCF Hessian
   Vijay G. Chilkuri      : MRCI spin determinant printing, contributions to CSF-ICE
   Dipayan Datta          : RHF DLPNO-CCSD density
   Achintya Kumar Dutta   : EOM-CC, STEOM-CC
   Dmitry Ganyushin       : Spin-Orbit,Spin-Spin,Magnetic field MRCI
   Miquel Garcia          : C-PCM and meta-GGA Hessian, CC/C-PCM, Gaussian charge scheme
   Yang Guo               : DLPNO-NEVPT2, F12-NEVPT2, CIM, IAO-localization
   Andreas Hansen         : Spin unrestricted coupled pair/coupled cluster methods
   Benjamin Helmich-Paris : MC-RPA, TRAH-SCF, COSX integrals
   Lee Huntington         : MR-EOM, pCC
   Robert Izsak           : Overlap fitted RIJCOSX, COSX-SCS-MP3, EOM
   Marcus Kettner         : VPT2
   Christian Kollmar      : KDIIS, OOCD, Brueckner-CCSD(T), CCSD density, CASPT2, CASPT2-K
   Simone Kossmann        : Meta GGA functionals, TD-DFT gradient, OOMP2, MP2 Hessian
   Martin Krupicka        : Initial AUTO-CI
   Lucas Lang             : DCDCAS
   Marvin Lechner         : AUTO-CI (C++ implementation), FIC-MRCC
   Dagmar Lenk            : GEPOL surface, SMD
   Dimitrios Liakos       : Extrapolation schemes; Compound Job, initial MDCI parallelization
   Dimitrios Manganas     : Further ROCIS development; embedding schemes
   Dimitrios Pantazis     : SARC Basis sets
   Anastasios Papadopoulos: AUTO-CI, single reference methods and gradients
   Taras Petrenko         : DFT Hessian,TD-DFT gradient, ASA, ECA, R-Raman, ABS, FL, XAS/XES, NRVS
   Peter Pinski           : DLPNO-MP2, DLPNO-MP2 Gradient
   Christoph Reimann      : Effective Core Potentials
   Marius Retegan         : Local ZFS, SOC
   Christoph Riplinger    : Optimizer, TS searches, QM/MM, DLPNO-CCSD(T), (RO)-DLPNO pert. Triples
   Tobias Risthaus        : Range-separated hybrids, TD-DFT gradient, RPA, STAB
   Michael Roemelt        : Original ROCIS implementation
   Masaaki Saitow         : Open-shell DLPNO-CCSD energy and density
   Barbara Sandhoefer     : DKH picture change effects
   Avijit Sen             : IP-ROCIS
   Kantharuban Sivalingam : CASSCF convergence, NEVPT2, FIC-MRCI
   Bernardo de Souza      : ESD, SOC TD-DFT
   Georgi Stoychev        : AutoAux, RI-MP2 NMR, DLPNO-MP2 response
   Willem Van den Heuvel  : Paramagnetic NMR
   Boris Wezisla          : Elementary symmetry handling
   Frank Wennmohs         : Technical directorship


 We gratefully acknowledge several colleagues who have allowed us to
 interface, adapt or use parts of their codes:
   Stefan Grimme, W. Hujo, H. Kruse, P. Pracht,  : VdW corrections, initial TS optimization,
                  C. Bannwarth, S. Ehlert          DFT functionals, gCP, sTDA/sTD-DF
   Ed Valeev, F. Pavosevic, A. Kumar             : LibInt (2-el integral package), F12 methods
   Garnet Chan, S. Sharma, J. Yang, R. Olivares  : DMRG
   Ulf Ekstrom                                   : XCFun DFT Library
   Mihaly Kallay                                 : mrcc  (arbitrary order and MRCC methods)
   Jiri Pittner, Ondrej Demel                    : Mk-CCSD
   Frank Weinhold                                : gennbo (NPA and NBO analysis)
   Christopher J. Cramer and Donald G. Truhlar   : smd solvation model
   Lars Goerigk                                  : TD-DFT with DH, B97 family of functionals
   V. Asgeirsson, H. Jonsson                     : NEB implementation
   FAccTs GmbH                                   : IRC, NEB, NEB-TS, DLPNO-Multilevel, CI-OPT
                                                   MM, QMMM, 2- and 3-layer-ONIOM, Crystal-QMMM,
                                                   LR-CPCM, SF, NACMEs, symmetry and pop. for TD-DFT,
                                                   nearIR, NL-DFT gradient (VV10), updates on ESD,
                                                   ML-optimized integration grids
   S Lehtola, MJT Oliveira, MAL Marques          : LibXC Library
   Liviu Ungur et al                             : ANISO software


 Your calculation uses the libint2 library for the computation of 2-el integrals
 For citations please refer to: http://libint.valeyev.net

 Your ORCA version has been built with support for libXC version: 5.1.0
 For citations please refer to: https://tddft.org/programs/libxc/

 This ORCA versions uses:
   CBLAS   interface :  Fast vector & matrix operations
   LAPACKE interface :  Fast linear algebra routines
   SCALAPACK package :  Parallel linear algebra routines
   Shared memory     :  Shared parallel matrices
   BLAS/LAPACK       :  OpenBLAS 0.3.15  USE64BITINT DYNAMIC_ARCH NO_AFFINITY Zen SINGLE_THREADED
        Core in use  :  Zen
   Copyright (c) 2011-2014, The OpenBLAS Project


Your calculation utilizes the atom-pairwise dispersion correction
with the zero-damping scheme (D30)
Cite in your paper:
S.Grimme, J.Antony, S.Ehrlich and H.Krieg, J.Chem.Phys., 132, (2010), 154104 
   

Your calculation utilizes the SMD solvation module
Please cite in your paper:
A.V. Marenich, C.J. Cramer, D.G. Truhlar J. Phys. Chem. B, 113, (2009), 6378 

XCFun DFT library Copyright 2009-2010 Ulf Ekstrom and contributors.
See http://admol.org/xcfun for more information.
This is free software; see the source code for copying conditions.
There is ABSOLUTELY NO WARRANTY; not even for MERCHANTABILITY or FITNESS FOR A PARTICULAR PURPOSE.
For details see the documentation.
Scientific users of this library should cite U. Ekstrom, L. Visscher, R. Bast, A. J. Thorvaldsen and K. Ruud;
J.Chem.Theor.Comp. 2010, DOI: 10.1021/ct100117s
XCFun Version 0.99 

================================================================================

----- Orbital basis set information -----
Your calculation utilizes the basis: ZORA-def2-SVP 
   Exponents from def2-SVP [F. Weigend and R. Ahlrichs, Phys. Chem. Chem. Phys. 7, 3297 (2005)],
   recontracted for ZORA by D. A. Pantazis.

The basis set includes element-specific modifications.

Your calculation utilizes the basis: SARC-ZORA-TZVP 
   Rb-Xe:  J. D. Rolfes, F. Neese and D. A. Pantazis, J. Comput. Chem. 41, 1842 (2020).
   La-Lu:  D. A. Pantazis and F. Neese, J. Chem. Theory Comput. 5, 2229 (2009).
   Hf-Hg:  D. A. Pantazis, X. Y. Chen, C. R. Landis and F. Neese, J. Chem. Theory Comput. 4, 908 (2008).
   Tl-Rn:  D. A. Pantazis and F. Neese, Theor. Chem. Acc. 131, 1292 (2012).
   Ac-Lr:  D. A. Pantazis and F. Neese, J. Chem. Theory Comput. 7, 677 (2011).

----- AuxJ basis set information -----
Your calculation utilizes the auxiliary basis: SARC/J 
   decontracted def2/J up to Kr:
   F. Weigend, Phys. Chem. Chem. Phys. 8, 1057 (2006)
   and SARC auxiliary basis sets beyond Kr:
   D. A. Pantazis and F. Neese, J. Chem. Theory Comput. 5, 2229 (2009).
   D. A. Pantazis, X. Y. Chen, C. R. Landis and F. Neese, J. Chem. Theory Comput. 4, 908 (2008).
   D. A. Pantazis and F. Neese, Theor. Chem. Acc. 131, 1292 (2012).
   D. A. Pantazis and F. Neese, J. Chem. Theory Comput. 7, 677 (2011).

================================================================================
                                        WARNINGS
                       Please study these warnings very carefully!
================================================================================

INFO   : Checking CIS options ...

INFO   : Since TDDFT/CIS Mode == RPA_AOINTS, the TAMMDANCOFF/TDA keyword is ignored. 


WARNING: (CIS/TDDFT): Spin-orbit needs TRIPLETS set to TRUE
  ===> : ajusting flags

WARNING: CIS/ROCIS methods need fully converged wavefunctions
  ===> : Setting SCFConvForced true
         You can overwrite this default with %scf ConvForced false 


INFO   : the flag for use of the SHARK integral package has been found!

================================================================================
                                       INPUT FILE
================================================================================
NAME = Ir_isoCN_5_SOC-wB97XD_def2SVP.inp
|  1> %maxcore 12000
|  2> %pal
|  3>  nprocs 8
|  4> end
|  5> ! wB97X-D3 ZORA ZORA-DEF2-SVP SARC/J CPCM RI-SOMF(1X)
|  6> 
|  7> %TDDFT 
|  8>     NROOTS    50
|  9>     TDA       FALSE
| 10>     DOSOC     TRUE
| 11> END
| 12> 
| 13> %CPCM
| 14>     SMD		TRUE
| 15>     SMDsolvent	"Acetonitrile"
| 16> END
| 17> 
| 18> %BASIS
| 19> 	NEWGTO  RU      "SARC-ZORA-TZVP" END
| 20> 	NEWGTO  IR      "SARC-ZORA-TZVP" END
| 21> END
| 22> 
| 23> * xyz 1 1
| 24> Ir                  0.00211800   -0.00555000    0.14433100
| 25> S                  -0.67328700    2.99835400   -3.18782600
| 26> S                   0.63854000   -2.99823600   -3.20563200
| 27> N                   1.39327600    1.57595800   -0.06525800
| 28> N                  -1.39070000   -1.58372600   -0.05454600
| 29> N                   1.71447300   -1.95388800    1.98038600
| 30> N                  -1.69698700    1.93905100    1.99635300
| 31> C                   2.38734400    1.92304200    0.85182300
| 32> C                   2.30199200    1.48885500    2.19291200
| 33> H                   1.45027400    0.89747200    2.51862300
| 34> C                   3.26105800    1.84906200    3.11784600
| 35> H                   3.16306000    1.51004300    4.15142600
| 36> C                   4.34320600    2.65691300    2.73761100
| 37> H                   5.10363200    2.94031500    3.46779600
| 38> C                   4.42940400    3.11147200    1.43723700
| 39> H                   5.25923200    3.76123000    1.15854900
| 40> C                   3.45795600    2.76683700    0.47290400
| 41> C                   3.51763000    3.24181300   -0.89901800
| 42> C                   4.62724900    3.94236500   -1.41636400
| 43> H                   5.48613900    4.15354400   -0.77987700
| 44> C                   4.65401700    4.35189400   -2.73504300
| 45> H                   5.52533100    4.88755700   -3.11775800
| 46> C                   3.57904400    4.06004500   -3.58986400
| 47> H                   3.61600900    4.35237100   -4.64086000
| 48> C                   2.48094900    3.38127800   -3.10401300
| 49> H                   1.68510500    3.11661600   -3.79856800
| 50> C                   2.41949700    2.97834900   -1.75004900
| 51> C                   1.30693200    2.20368300   -1.23729500
| 52> C                  -0.85053300    1.11647600   -1.35680200
| 53> C                  -2.15095700    1.20400800   -1.97190700
| 54> C                  -3.33921600    0.51879900   -1.64703200
| 55> H                  -3.34414000   -0.20425200   -0.83291000
| 56> C                  -4.50517800    0.78893000   -2.34244800
| 57> H                  -5.42359200    0.25581200   -2.08760400
| 58> C                  -4.52056500    1.75104500   -3.37023200
| 59> H                  -5.44912700    1.95102200   -3.90973200
| 60> C                  -3.37549000    2.46197500   -3.69819500
| 61> H                  -3.39495700    3.22226000   -4.48192500
| 62> C                  -2.19894700    2.18753800   -2.98865400
| 63> C                   0.03065700    2.01645700   -1.90504000
| 64> C                  -2.37694900   -1.92954900    0.87159100
| 65> C                  -2.27295200   -1.50636100    2.21479400
| 66> H                  -1.41246400   -0.92625700    2.53697000
| 67> C                  -3.22656800   -1.86268000    3.14690700
| 68> H                  -3.11431200   -1.53114800    4.18149800
| 69> C                  -4.32116800   -2.65620200    2.77225300
| 70> H                  -5.07747600   -2.93570800    3.50813000
| 71> C                  -4.42433500   -3.10207100    1.47008000
| 72> H                  -5.26284900   -3.74187200    1.19461200
| 73> C                  -3.45884600   -2.76139200    0.49845200
| 74> C                  -3.53466200   -3.23099900   -0.87455000
| 75> C                  -4.65490900   -3.92059000   -1.38357600
| 76> H                  -5.51129100   -4.12198100   -0.74052200
| 77> C                  -4.69467300   -4.33073100   -2.70169900
| 78> H                  -5.57358700   -4.85837500   -3.07812600
| 79> C                  -3.62260500   -4.04989500   -3.56382200
| 80> H                  -3.66903600   -4.34387400   -4.61397700
| 81> C                  -2.51530300   -3.38008300   -3.08647000
| 82> H                  -1.72174400   -3.12446700   -3.78680200
| 83> C                  -2.44072500   -2.97598300   -1.73351400
| 84> C                  -1.31895100   -2.20835000   -1.22947900
| 85> C                   0.83876100   -1.12333700   -1.36970300
| 86> C                   2.13062300   -1.20645900   -2.00367000
| 87> C                   3.32162200   -0.51797100   -1.69609700
| 88> H                   3.33758600    0.20339400   -0.88083100
| 89> C                   4.47658400   -0.77993100   -2.41264000
| 90> H                   5.39671800   -0.24342500   -2.17140700
| 91> C                   4.47867500   -1.73778800   -3.44436100
| 92> H                   5.39857700   -1.93093000   -4.00094900
| 93> C                   3.33111000   -2.45205100   -3.75589600
| 94> H                   3.34073900   -3.20849400   -4.54350500
| 95> C                   2.16552200   -2.18532500   -3.02557400
| 96> C                  -0.04934600   -2.02160800   -1.90997200
| 97> C                   1.06910000   -1.18531900    1.39136400
| 98> C                   2.50671300   -2.88664200    2.62427100
| 99> C                   3.13908200   -3.86709700    1.83885500
|100> C                   3.93337500   -4.79853300    2.51128600
|101> H                   4.44111600   -5.57644100    1.93632400
|102> C                   4.08196600   -4.74285900    3.89653100
|103> H                   4.70848100   -5.48097600    4.40237500
|104> C                   3.43981300   -3.75597500    4.64358500
|105> H                   3.56307500   -3.72191800    5.72856000
|106> C                   2.63303700   -2.80113400    4.02137400
|107> C                   2.96249400   -3.88397000    0.34762500
|108> H                   3.46883300   -4.75039200   -0.09695900
|109> H                   3.37904100   -2.97041500   -0.10660500
|110> H                   1.89663800   -3.92346100    0.07046100
|111> C                   1.92377200   -1.72061700    4.78554600
|112> H                   2.11825200   -1.81045600    5.86209700
|113> H                   0.83499300   -1.77074000    4.62427900
|114> H                   2.25552100   -0.72319900    4.45585400
|115> C                  -1.05707600    1.16882400    1.40346900
|116> C                  -2.47738600    2.88199100    2.64001800
|117> C                  -2.59061700    2.80925500    4.03887300
|118> C                  -3.38352800    3.77568100    4.66106700
|119> H                  -3.49653700    3.75193300    5.74741500
|120> C                  -4.02498900    4.76165000    3.91220000
|121> H                  -4.64061100    5.50898800    4.41785300
|122> C                  -3.88915400    4.80498100    2.52525300
|123> H                  -4.39549800    5.58266200    1.94876500
|124> C                  -3.10897600    3.86165500    1.85285300
|125> C                  -1.88200200    1.72917400    4.80418000
|126> H                  -2.23164900    0.73232200    4.49135100
|127> H                  -2.05736300    1.83336900    5.88274700
|128> H                  -0.79563500    1.76363500    4.62387900
|129> C                  -2.94572000    3.86666700    0.36012000
|130> H                  -3.44471200    4.73684300   -0.08538600
|131> H                  -3.37856900    2.95602000   -0.08435900
|132> H                  -1.88196800    3.88980900    0.07301000
|133> *
|134> 
|135>                          ****END OF INPUT****
================================================================================

                       ****************************
                       * Single Point Calculation *
                       ****************************

---------------------------------
CARTESIAN COORDINATES (ANGSTROEM)
---------------------------------
  Ir     0.002118   -0.005550    0.144331
  S     -0.673287    2.998354   -3.187826
  S      0.638540   -2.998236   -3.205632
  N      1.393276    1.575958   -0.065258
  N     -1.390700   -1.583726   -0.054546
  N      1.714473   -1.953888    1.980386
  N     -1.696987    1.939051    1.996353
  C      2.387344    1.923042    0.851823
  C      2.301992    1.488855    2.192912
  H      1.450274    0.897472    2.518623
  C      3.261058    1.849062    3.117846
  H      3.163060    1.510043    4.151426
  C      4.343206    2.656913    2.737611
  H      5.103632    2.940315    3.467796
  C      4.429404    3.111472    1.437237
  H      5.259232    3.761230    1.158549
  C      3.457956    2.766837    0.472904
  C      3.517630    3.241813   -0.899018
  C      4.627249    3.942365   -1.416364
  H      5.486139    4.153544   -0.779877
  C      4.654017    4.351894   -2.735043
  H      5.525331    4.887557   -3.117758
  C      3.579044    4.060045   -3.589864
  H      3.616009    4.352371   -4.640860
  C      2.480949    3.381278   -3.104013
  H      1.685105    3.116616   -3.798568
  C      2.419497    2.978349   -1.750049
  C      1.306932    2.203683   -1.237295
  C     -0.850533    1.116476   -1.356802
  C     -2.150957    1.204008   -1.971907
  C     -3.339216    0.518799   -1.647032
  H     -3.344140   -0.204252   -0.832910
  C     -4.505178    0.788930   -2.342448
  H     -5.423592    0.255812   -2.087604
  C     -4.520565    1.751045   -3.370232
  H     -5.449127    1.951022   -3.909732
  C     -3.375490    2.461975   -3.698195
  H     -3.394957    3.222260   -4.481925
  C     -2.198947    2.187538   -2.988654
  C      0.030657    2.016457   -1.905040
  C     -2.376949   -1.929549    0.871591
  C     -2.272952   -1.506361    2.214794
  H     -1.412464   -0.926257    2.536970
  C     -3.226568   -1.862680    3.146907
  H     -3.114312   -1.531148    4.181498
  C     -4.321168   -2.656202    2.772253
  H     -5.077476   -2.935708    3.508130
  C     -4.424335   -3.102071    1.470080
  H     -5.262849   -3.741872    1.194612
  C     -3.458846   -2.761392    0.498452
  C     -3.534662   -3.230999   -0.874550
  C     -4.654909   -3.920590   -1.383576
  H     -5.511291   -4.121981   -0.740522
  C     -4.694673   -4.330731   -2.701699
  H     -5.573587   -4.858375   -3.078126
  C     -3.622605   -4.049895   -3.563822
  H     -3.669036   -4.343874   -4.613977
  C     -2.515303   -3.380083   -3.086470
  H     -1.721744   -3.124467   -3.786802
  C     -2.440725   -2.975983   -1.733514
  C     -1.318951   -2.208350   -1.229479
  C      0.838761   -1.123337   -1.369703
  C      2.130623   -1.206459   -2.003670
  C      3.321622   -0.517971   -1.696097
  H      3.337586    0.203394   -0.880831
  C      4.476584   -0.779931   -2.412640
  H      5.396718   -0.243425   -2.171407
  C      4.478675   -1.737788   -3.444361
  H      5.398577   -1.930930   -4.000949
  C      3.331110   -2.452051   -3.755896
  H      3.340739   -3.208494   -4.543505
  C      2.165522   -2.185325   -3.025574
  C     -0.049346   -2.021608   -1.909972
  C      1.069100   -1.185319    1.391364
  C      2.506713   -2.886642    2.624271
  C      3.139082   -3.867097    1.838855
  C      3.933375   -4.798533    2.511286
  H      4.441116   -5.576441    1.936324
  C      4.081966   -4.742859    3.896531
  H      4.708481   -5.480976    4.402375
  C      3.439813   -3.755975    4.643585
  H      3.563075   -3.721918    5.728560
  C      2.633037   -2.801134    4.021374
  C      2.962494   -3.883970    0.347625
  H      3.468833   -4.750392   -0.096959
  H      3.379041   -2.970415   -0.106605
  H      1.896638   -3.923461    0.070461
  C      1.923772   -1.720617    4.785546
  H      2.118252   -1.810456    5.862097
  H      0.834993   -1.770740    4.624279
  H      2.255521   -0.723199    4.455854
  C     -1.057076    1.168824    1.403469
  C     -2.477386    2.881991    2.640018
  C     -2.590617    2.809255    4.038873
  C     -3.383528    3.775681    4.661067
  H     -3.496537    3.751933    5.747415
  C     -4.024989    4.761650    3.912200
  H     -4.640611    5.508988    4.417853
  C     -3.889154    4.804981    2.525253
  H     -4.395498    5.582662    1.948765
  C     -3.108976    3.861655    1.852853
  C     -1.882002    1.729174    4.804180
  H     -2.231649    0.732322    4.491351
  H     -2.057363    1.833369    5.882747
  H     -0.795635    1.763635    4.623879
  C     -2.945720    3.866667    0.360120
  H     -3.444712    4.736843   -0.085386
  H     -3.378569    2.956020   -0.084359
  H     -1.881968    3.889809    0.073010

----------------------------
CARTESIAN COORDINATES (A.U.)
----------------------------
  NO LB      ZA    FRAG     MASS         X           Y           Z
   0 Ir   77.0000    0   192.220    0.004002   -0.010488    0.272746
   1 S    16.0000    0    32.060   -1.272328    5.666068   -6.024118
   2 S    16.0000    0    32.060    1.206666   -5.665845   -6.057767
   3 N     7.0000    0    14.007    2.632910    2.978129   -0.123320
   4 N     7.0000    0    14.007   -2.628042   -2.992808   -0.103077
   5 N     7.0000    0    14.007    3.239884   -3.692313    3.742387
   6 N     7.0000    0    14.007   -3.206841    3.664275    3.772560
   7 C     6.0000    0    12.011    4.511426    3.634023    1.609712
   8 C     6.0000    0    12.011    4.350134    2.813528    4.144003
   9 H     1.0000    0     1.008    2.740621    1.695976    4.759508
  10 C     6.0000    0    12.011    6.162507    3.494221    5.891875
  11 H     1.0000    0     1.008    5.977317    2.853568    7.845058
  12 C     6.0000    0    12.011    8.207470    5.020838    5.173335
  13 H     1.0000    0     1.008    9.644467    5.556390    6.553185
  14 C     6.0000    0    12.011    8.370360    5.879830    2.715984
  15 H     1.0000    0     1.008    9.938508    7.107695    2.189340
  16 C     6.0000    0    12.011    6.534590    5.228564    0.893659
  17 C     6.0000    0    12.011    6.647357    6.126139   -1.698898
  18 C     6.0000    0    12.011    8.744233    7.449990   -2.676540
  19 H     1.0000    0     1.008   10.367300    7.849061   -1.473754
  20 C     6.0000    0    12.011    8.794818    8.223888   -5.168482
  21 H     1.0000    0     1.008   10.441362    9.236144   -5.891709
  22 C     6.0000    0    12.011    6.763413    7.672373   -6.783860
  23 H     1.0000    0     1.008    6.833267    8.224789   -8.769954
  24 C     6.0000    0    12.011    4.688314    6.389689   -5.865734
  25 H     1.0000    0     1.008    3.184387    5.889551   -7.178253
  26 C     6.0000    0    12.011    4.572187    5.628264   -3.307113
  27 C     6.0000    0    12.011    2.469744    4.164357   -2.338149
  28 C     6.0000    0    12.011   -1.607274    2.109834   -2.563984
  29 C     6.0000    0    12.011   -4.064720    2.275245   -3.726364
  30 C     6.0000    0    12.011   -6.310204    0.980388   -3.112439
  31 H     1.0000    0     1.008   -6.319509   -0.385980   -1.573972
  32 C     6.0000    0    12.011   -8.513553    1.490862   -4.426585
  33 H     1.0000    0     1.008  -10.249104    0.483415   -3.945000
  34 C     6.0000    0    12.011   -8.542630    3.308995   -6.368815
  35 H     1.0000    0     1.008  -10.297358    3.686897   -7.388323
  36 C     6.0000    0    12.011   -6.378752    4.652458   -6.988576
  37 H     1.0000    0     1.008   -6.415539    6.089189   -8.469611
  38 C     6.0000    0    12.011   -4.155408    4.133848   -5.647738
  39 C     6.0000    0    12.011    0.057933    3.810551   -3.600004
  40 C     6.0000    0    12.011   -4.491783   -3.646319    1.647068
  41 C     6.0000    0    12.011   -4.295257   -2.846610    4.185354
  42 H     1.0000    0     1.008   -2.669170   -1.750372    4.794179
  43 C     6.0000    0    12.011   -6.097330   -3.519955    5.946792
  44 H     1.0000    0     1.008   -5.885197   -2.893450    7.901886
  45 C     6.0000    0    12.011   -8.165824   -5.019494    5.238799
  46 H     1.0000    0     1.008   -9.595039   -5.547684    6.629405
  47 C     6.0000    0    12.011   -8.360781   -5.862065    2.778049
  48 H     1.0000    0     1.008   -9.945343   -7.071113    2.257490
  49 C     6.0000    0    12.011   -6.536272   -5.218275    0.941938
  50 C     6.0000    0    12.011   -6.679543   -6.105703   -1.652660
  51 C     6.0000    0    12.011   -8.796503   -7.408841   -2.614580
  52 H     1.0000    0     1.008  -10.414831   -7.789415   -1.399384
  53 C     6.0000    0    12.011   -8.871646   -8.183896   -5.105471
  54 H     1.0000    0     1.008  -10.532553   -9.180998   -5.816815
  55 C     6.0000    0    12.011   -6.845731   -7.653192   -6.734648
  56 H     1.0000    0     1.008   -6.933473   -8.208732   -8.719153
  57 C     6.0000    0    12.011   -4.753234   -6.387431   -5.832583
  58 H     1.0000    0     1.008   -3.253625   -5.904387   -7.156019
  59 C     6.0000    0    12.011   -4.612302   -5.623793   -3.275867
  60 C     6.0000    0    12.011   -2.492456   -4.173177   -2.323379
  61 C     6.0000    0    12.011    1.585029   -2.122799   -2.588364
  62 C     6.0000    0    12.011    4.026294   -2.279877   -3.786388
  63 C     6.0000    0    12.011    6.276956   -0.978823   -3.205159
  64 H     1.0000    0     1.008    6.307123    0.384359   -1.664529
  65 C     6.0000    0    12.011    8.459518   -1.473856   -4.559229
  66 H     1.0000    0     1.008   10.198319   -0.460007   -4.103365
  67 C     6.0000    0    12.011    8.463469   -3.283943   -6.508899
  68 H     1.0000    0     1.008   10.201832   -3.648929   -7.560698
  69 C     6.0000    0    12.011    6.294886   -4.633705   -7.097615
  70 H     1.0000    0     1.008    6.313082   -6.063175   -8.585980
  71 C     6.0000    0    12.011    4.092244   -4.129666   -5.717506
  72 C     6.0000    0    12.011   -0.093250   -3.820285   -3.609324
  73 C     6.0000    0    12.011    2.020306   -2.239928    2.629297
  74 C     6.0000    0    12.011    4.737001   -5.454963    4.959153
  75 C     6.0000    0    12.011    5.932005   -7.307754    3.474932
  76 C     6.0000    0    12.011    7.433002   -9.067913    4.745643
  77 H     1.0000    0     1.008    8.392493  -10.537946    3.659122
  78 C     6.0000    0    12.011    7.713798   -8.962705    7.363376
  79 H     1.0000    0     1.008    8.897740  -10.357544    8.319283
  80 C     6.0000    0    12.011    6.500305   -7.097764    8.775104
  81 H     1.0000    0     1.008    6.733236   -7.033406   10.825410
  82 C     6.0000    0    12.011    4.975719   -5.293376    7.599296
  83 C     6.0000    0    12.011    5.598302   -7.339640    0.656916
  84 H     1.0000    0     1.008    6.555144   -8.976940   -0.183226
  85 H     1.0000    0     1.008    6.385462   -5.613271   -0.201454
  86 H     1.0000    0     1.008    3.584126   -7.414267    0.133152
  87 C     6.0000    0    12.011    3.635402   -3.251495    9.043371
  88 H     1.0000    0     1.008    4.002916   -3.421266   11.077758
  89 H     1.0000    0     1.008    1.577908   -3.346214    8.738621
  90 H     1.0000    0     1.008    4.262317   -1.366648    8.420344
  91 C     6.0000    0    12.011   -1.997584    2.208757    2.652172
  92 C     6.0000    0    12.011   -4.681581    5.446174    4.988911
  93 C     6.0000    0    12.011   -4.895557    5.308723    7.632364
  94 C     6.0000    0    12.011   -6.393941    7.135003    8.808140
  95 H     1.0000    0     1.008   -6.607497    7.090126   10.861040
  96 C     6.0000    0    12.011   -7.606127    8.998214    7.392987
  97 H     1.0000    0     1.008   -8.769484   10.410479    8.348532
  98 C     6.0000    0    12.011   -7.349436    9.080098    4.772037
  99 H     1.0000    0     1.008   -8.306287   10.549702    3.682632
 100 C     6.0000    0    12.011   -5.875113    7.297470    3.501385
 101 C     6.0000    0    12.011   -3.556468    3.267665    9.078584
 102 H     1.0000    0     1.008   -4.217205    1.383888    8.487423
 103 H     1.0000    0     1.008   -3.887853    3.464565   11.116781
 104 H     1.0000    0     1.008   -1.503532    3.332787    8.737865
 105 C     6.0000    0    12.011   -5.566604    7.306942    0.680528
 106 H     1.0000    0     1.008   -6.509562    8.951336   -0.161356
 107 H     1.0000    0     1.008   -6.384570    5.586068   -0.159415
 108 H     1.0000    0     1.008   -3.556404    7.350674    0.137969

--------------------------------
INTERNAL COORDINATES (ANGSTROEM)
--------------------------------
 Ir     0   0   0     0.000000000000     0.00000000     0.00000000
 S      1   0   0     4.536836059182     0.00000000     0.00000000
 S      1   2   0     4.536899222823    85.14227570     0.00000000
 N      1   2   3     2.116699242677    61.99259347   114.67879409
 N      1   2   3     2.114269029530   109.09102024   301.86686626
 N      1   2   3     3.177936212590   155.57254328    71.53693981
 N      1   2   3     3.177800550492    86.74840115   203.28369342
 C      4   1   2     1.396308007655   126.05692313   168.80996338
 C      8   4   1     1.412205020808   120.28242418   341.04660396
 H      9   8   4     1.086850983224   119.95026437   358.86229151
 C      9   8   4     1.380238957413   120.94039351   181.47553812
 H     11   9   8     1.092165329410   119.39464614   179.18931953
 C     11   9   8     1.402941975753   120.30643638   359.96733433
 H     13  11   9     1.091665942175   120.36466582   180.15381629
 C     13  11   9     1.380226981174   119.54843345     1.25318560
 H     15  13  11     1.090168321633   118.99121811   178.32163666
 C     15  13  11     1.411532016930   121.35007995   359.20237333
 C     17  15  13     1.453042725090   122.47734191   179.39503574
 C     18  17  15     1.410558156752   122.74791225     8.03669990
 H     19  18  17     1.089680826348   120.13651602   359.66921220
 C     19  18  17     1.381066556219   120.84500980   178.64779896
 H     21  19  18     1.092059388216   119.70511783   180.38553473
 C     21  19  18     1.404087508516   120.32019835   359.14897251
 H     23  21  19     1.091518892881   120.30558674   182.20041156
 C     23  21  19     1.379343490040   119.82405193     1.12706526
 H     25  23  21     1.088953761463   118.47368892   183.43050831
 C     25  23  21     1.413982546088   120.80437716     0.27298638
 C      4   1   2     1.332353065569   113.36120468   344.62011152
 C      1   2   3     2.058969731727    16.67576290   277.97248690
 C     29   1   2     1.441221215437   135.88294714   181.12065706
 C     30  29   1     1.409615050426   129.25172013     3.44535632
 H     31  30  29     1.088862537358   119.92853390   359.15451990
 C     31  30  29     1.384211528510   119.96076630   177.63531803
 H     33  31  30     1.092082662465   119.72748624   179.99853150
 C     33  31  30     1.407921156759   120.61791227   359.59654241
 H     35  33  31     1.092372847691   119.66463010   179.92843636
 C     35  33  31     1.387147414623   120.91741085   359.15089509
 H     37  35  33     1.092082853182   120.78103428   181.26432155
 C     37  35  33     1.401077274278   118.23407665     0.64670649
 C     29   1   2     1.373690838983   112.47929261     0.38976718
 C      5   1   2     1.396427721044   125.99655435   242.44268733
 C     41   5   1     1.412125263056   120.30610222   340.46126936
 H     42  41   5     1.086626717846   120.02166694   358.73072339
 C     42  41   5     1.380283068789   120.93748066   181.28337921
 H     44  42  41     1.092196600361   119.36153821   179.26585464
 C     44  42  41     1.402922643698   120.31276840     0.00000000
 H     46  44  42     1.091622807580   120.35567862   180.19988026
 C     46  44  42     1.380252555505   119.53655019     1.33134063
 H     48  46  44     1.090107181345   119.04466229   178.25265200
 C     48  46  44     1.411485798918   121.35481870   359.13322258
 C     50  48  46     1.453070298475   122.46249040   179.20769370
 C     51  50  48     1.410530594126   122.71284036     8.05720284
 H     52  51  50     1.089709553836   120.10211741     0.00000000
 C     52  51  50     1.381030433664   120.83019813   178.94505526
 H     54  52  51     1.092060115772   119.71310520   180.34630457
 C     54  52  51     1.404085012615   120.30857576   359.12906895
 H     56  54  52     1.091515008704   120.29120292   182.11124729
 C     56  54  52     1.379358824401   119.83977053     1.04431175
 H     58  56  54     1.088825209187   118.45589335   183.39780456
 C     58  56  54     1.413983248140   120.81382567     0.31748829
 C      5   1   2     1.332580434670   113.41246855    58.02929024
 C      1   2   3     2.059543211485    83.10206609    16.66910973
 C     62   1   2     1.441433609646   135.94688286    84.58769219
 C     63  62   1     1.409643747361   129.27869132     3.44643729
 H     64  63  62     1.088706095912   119.96009704   359.26985121
 C     64  63  62     1.384194398881   119.97296311   177.92708788
 H     66  64  63     1.092098267685   119.71526211   179.94422085
 C     66  64  63     1.407814841011   120.62200392   359.54469252
 H     68  66  64     1.092388998257   119.66624063   179.89797402
 C     68  66  64     1.387130534095   120.91108996   359.19344212
 H     70  68  66     1.092074478582   120.75373460   181.21712739
 C     70  68  66     1.401109691817   118.23820078     0.64364997
 C     62   1   2     1.373868780216   112.41704268   264.14334816
 C      6   1   2     1.163680167990     5.00218492   115.25671988
 C      6   1   2     1.382845665771   172.41315096   301.62929397
 C     75   6  74     1.406435513005   117.89083007   346.96556710
 C     76  75   6     1.396652369670   116.85621674   180.03153111
 H     77  76  75     1.092484819569   119.06491134   179.97303921
 C     77  76  75     1.394303621735   120.81778646   359.93954543
 H     79  77  76     1.092344223791   119.61798177   180.03804339
 C     79  77  76     1.394413921252   120.76041882     0.05052525
 H     81  79  77     1.092485309063   120.14358623   179.98421904
 C     81  79  77     1.396336412896   120.75143167     0.00000000
 C     76  75   6     1.501743963788   120.63028841     0.52903552
 H     84  76  75     1.097597921855   110.90623469   183.75053901
 H     84  76  75     1.102006821274   110.82636673    63.49511423
 H     84  76  75     1.102011086475   111.33867084   304.57545324
 C     83  81  79     1.501510130868   122.56334276   180.04407779
 H     88  83  81     1.097659132847   110.88895919   358.99550498
 H     88  83  81     1.101798108212   111.07303959   238.44606014
 H     88  83  81     1.101633732503   110.91491947   119.39011258
 C      7   1   2     1.163721253955     5.15878532   185.13729524
 C      7   1   2     1.382918318277   171.98440605     9.12903187
 C     93   7  92     1.405313878136   118.26030868   175.64846004
 C     94  93   7     1.396356845879   116.96634571   179.91053944
 H     95  94  93     1.092468296423   119.12931379   179.96478071
 C     95  94  93     1.394420620606   120.75012836   359.92374219
 H     97  95  94     1.092332133345   119.63137433   180.02428096
 C     97  95  94     1.394256326360   120.75628693     0.00000000
 H     99  97  95     1.092479015012   120.12512173   180.06418417
 C     99  97  95     1.396661524479   120.81987570     0.06818799
 C     94  93   7     1.501467611717   120.43555103   359.80997239
 H    102  94  93     1.101739042493   110.87703285   299.01609701
 H    102  94  93     1.097686135393   110.92523838   178.62916359
 H    102  94  93     1.101766431605   111.06581116    58.02674707
 C    101  99  97     1.501642251327   122.48327233   179.50177528
 H    106 101  99     1.097576823314   110.89833787     4.52766385
 H    106 101  99     1.101906437431   110.82498745   244.29145919
 H    106 101  99     1.102059899356   111.34512324   125.38334950

---------------------------
INTERNAL COORDINATES (A.U.)
---------------------------
 Ir     0   0   0     0.000000000000     0.00000000     0.00000000
 S      1   0   0     8.573377666352     0.00000000     0.00000000
 S      1   2   0     8.573497028335    85.14227570     0.00000000
 N      1   2   3     3.999981876538    61.99259347   114.67879409
 N      1   2   3     3.995389439243   109.09102024   301.86686626
 N      1   2   3     6.005429112867   155.57254328    71.53693981
 N      1   2   3     6.005172748655    86.74840115   203.28369342
 C      4   1   2     2.638639733069   126.05692313   168.80996338
 C      8   4   1     2.668680734275   120.28242418   341.04660396
 H      9   8   4     2.053850706676   119.95026437   358.86229151
 C      9   8   4     2.608273628880   120.94039351   181.47553812
 H     11   9   8     2.063893365549   119.39464614   179.18931953
 C     11   9   8     2.651176115956   120.30643638   359.96733433
 H     13  11   9     2.062949660440   120.36466582   180.15381629
 C     13  11   9     2.608250997068   119.54843345     1.25318560
 H     15  13  11     2.060119567763   118.99121811   178.32163666
 C     15  13  11     2.667408941259   121.35007995   359.20237333
 C     17  15  13     2.745852811306   122.47734191   179.39503574
 C     18  17  15     2.665568612231   122.74791225     8.03669990
 H     19  18  17     2.059198335182   120.13651602   359.66921220
 C     19  18  17     2.609837563971   120.84500980   178.64779896
 H     21  19  18     2.063693165705   119.70511783   180.38553473
 C     21  19  18     2.653340859155   120.32019835   359.14897251
 H     23  21  19     2.062671777547   120.30558674   182.20041156
 C     23  21  19     2.606581440782   119.82405193     1.12706526
 H     25  23  21     2.057824381669   118.47368892   183.43050831
 C     25  23  21     2.672039770251   120.80437716     0.27298638
 C      4   1   2     2.517782407615   113.36120468   344.62011152
 C      1   2   3     3.890888910996    16.67576290   277.97248690
 C     29   1   2     2.723513395573   135.88294714   181.12065706
 C     30  29   1     2.663786399558   129.25172013     3.44535632
 H     31  30  29     2.057651993093   119.92853390   359.15451990
 C     31  30  29     2.615780700301   119.96076630   177.63531803
 H     33  31  30     2.063737147662   119.72748624   179.99853150
 C     33  31  30     2.660585404428   120.61791227   359.59654241
 H     35  33  31     2.064285518268   119.66463010   179.92843636
 C     35  33  31     2.621328721014   120.91741085   359.15089509
 H     37  35  33     2.063737508065   120.78103428   181.26432155
 C     37  35  33     2.647652340847   118.23407665     0.64670649
 C     29   1   2     2.595899478354   112.47929261     0.38976718
 C      5   1   2     2.638865958588   125.99655435   242.44268733
 C     41   5   1     2.668530013968   120.30610222   340.46126936
 H     42  41   5     2.053426906530   120.02166694   358.73072339
 C     42  41   5     2.608356987300   120.93748066   181.28337921
 H     44  42  41     2.063952459083   119.36153821   179.26585464
 C     44  42  41     2.651139583666   120.31276840     0.00000000
 H     46  44  42     2.062868147869   120.35567862   180.19988026
 C     46  44  42     2.608299325550   119.53655019     1.33134063
 H     48  46  44     2.060004029364   119.04466229   178.25265200
 C     48  46  44     2.667321601873   121.35481870   359.13322258
 C     50  48  46     2.745904917452   122.46249040   179.20769370
 C     51  50  48     2.665516526416   122.71284036     8.05720284
 H     52  51  50     2.059252622267   120.10211741     0.00000000
 C     52  51  50     2.609769302235   120.83019813   178.94505526
 H     54  52  51     2.063694540588   119.71310520   180.34630457
 C     54  52  51     2.653336142585   120.30857576   359.12906895
 H     56  54  52     2.062664437516   120.29120292   182.11124729
 C     56  54  52     2.606610418525   119.83977053     1.04431175
 H     58  56  54     2.057581453073   118.45589335   183.39780456
 C     58  56  54     2.672041096937   120.81382567     0.31748829
 C      5   1   2     2.518212072949   113.41246855    58.02929024
 C      1   2   3     3.891972630683    83.10206609    16.66910973
 C     62   1   2     2.723914762460   135.94688286    84.58769219
 C     63  62   1     2.663840628907   129.27869132     3.44643729
 H     64  63  62     2.057356361605   119.96009704   359.26985121
 C     64  63  62     2.615748329992   119.97296311   177.92708788
 H     66  64  63     2.063766637255   119.71526211   179.94422085
 C     66  64  63     2.660384496781   120.62200392   359.54469252
 H     68  66  64     2.064316038414   119.66624063   179.89797402
 C     68  66  64     2.621296821440   120.91108996   359.19344212
 H     70  68  66     2.063721682366   120.75373460   181.21712739
 C     70  68  66     2.647713601117   118.23820078     0.64364997
 C     62   1   2     2.596235738552   112.41704268   264.14334816
 C      6   1   2     2.199036824977     5.00218492   115.25671988
 C      6   1   2     2.613199593787   172.41315096   301.62929397
 C     75   6  74     2.657777944601   117.89083007   346.96556710
 C     76  75   6     2.639290482969   116.85621674   180.03153111
 H     77  76  75     2.064497114452   119.06491134   179.97303921
 C     77  76  75     2.634851992613   120.81778646   359.93954543
 H     79  77  76     2.064231426936   119.61798177   180.03804339
 C     79  77  76     2.635060428493   120.76041882     0.05052525
 H     81  79  77     2.064498039461   120.14358623   179.98421904
 C     81  79  77     2.638693411195   120.75143167     0.00000000
 C     76  75   6     2.837884814828   120.63028841     0.52903552
 H     84  76  75     2.074159477468   110.90623469   183.75053901
 H     84  76  75     2.082491089921   110.82636673    63.49511423
 H     84  76  75     2.082499149982   111.33867084   304.57545324
 C     83  81  79     2.837442934648   122.56334276   180.04407779
 H     88  83  81     2.074275149478   110.88895919   358.99550498
 H     88  83  81     2.082096679393   111.07303959   238.44606014
 H     88  83  81     2.081786054321   110.91491947   119.39011258
 C      7   1   2     2.199114466198     5.15878532   185.13729524
 C      7   1   2     2.613336887126   171.98440605     9.12903187
 C     93   7  92     2.655658361876   118.26030868   175.64846004
 C     94  93   7     2.638732023937   116.96634571   179.91053944
 H     95  94  93     2.064465890231   119.12931379   179.96478071
 C     95  94  93     2.635073088438   120.75012836   359.92374219
 H     97  95  94     2.064208579303   119.63137433   180.02428096
 C     97  95  94     2.634762617308   120.75628693     0.00000000
 H     99  97  95     2.064486145428   120.12512173   180.06418417
 C     99  97  95     2.639307783050   120.81987570     0.06818799
 C     94  93   7     2.837362585098   120.43555103   359.80997239
 H    102  94  93     2.081985061361   110.87703285   299.01609701
 H    102  94  93     2.074326176896   110.92523838   178.62916359
 H    102  94  93     2.082036819281   111.06581116    58.02674707
 C    101  99  97     2.837692606132   122.48327233   179.50177528
 H    106 101  99     2.074119607003   110.89833787     4.52766385
 H    106 101  99     2.082301391949   110.82498745   244.29145919
 H    106 101  99     2.082591392959   111.34512324   125.38334950

---------------------
BASIS SET INFORMATION
---------------------
There are 5 groups of distinct atoms

 Group   1 Type Ir  : 22s15p11d6f contracted to 17s11p8d3f pattern {61111111111111111/51111111111/41111111/411}
 Group   2 Type S   : 10s7p1d contracted to 6s3p1d pattern {511111/511/1}
 Group   3 Type N   : 7s4p1d contracted to 3s2p1d pattern {511/31/1}
 Group   4 Type C   : 7s4p1d contracted to 3s2p1d pattern {511/31/1}
 Group   5 Type H   : 4s1p contracted to 2s1p pattern {31/1}

Atom   0Ir   basis set group =>   1
Atom   1S    basis set group =>   2
Atom   2S    basis set group =>   2
Atom   3N    basis set group =>   3
Atom   4N    basis set group =>   3
Atom   5N    basis set group =>   3
Atom   6N    basis set group =>   3
Atom   7C    basis set group =>   4
Atom   8C    basis set group =>   4
Atom   9H    basis set group =>   5
Atom  10C    basis set group =>   4
Atom  11H    basis set group =>   5
Atom  12C    basis set group =>   4
Atom  13H    basis set group =>   5
Atom  14C    basis set group =>   4
Atom  15H    basis set group =>   5
Atom  16C    basis set group =>   4
Atom  17C    basis set group =>   4
Atom  18C    basis set group =>   4
Atom  19H    basis set group =>   5
Atom  20C    basis set group =>   4
Atom  21H    basis set group =>   5
Atom  22C    basis set group =>   4
Atom  23H    basis set group =>   5
Atom  24C    basis set group =>   4
Atom  25H    basis set group =>   5
Atom  26C    basis set group =>   4
Atom  27C    basis set group =>   4
Atom  28C    basis set group =>   4
Atom  29C    basis set group =>   4
Atom  30C    basis set group =>   4
Atom  31H    basis set group =>   5
Atom  32C    basis set group =>   4
Atom  33H    basis set group =>   5
Atom  34C    basis set group =>   4
Atom  35H    basis set group =>   5
Atom  36C    basis set group =>   4
Atom  37H    basis set group =>   5
Atom  38C    basis set group =>   4
Atom  39C    basis set group =>   4
Atom  40C    basis set group =>   4
Atom  41C    basis set group =>   4
Atom  42H    basis set group =>   5
Atom  43C    basis set group =>   4
Atom  44H    basis set group =>   5
Atom  45C    basis set group =>   4
Atom  46H    basis set group =>   5
Atom  47C    basis set group =>   4
Atom  48H    basis set group =>   5
Atom  49C    basis set group =>   4
Atom  50C    basis set group =>   4
Atom  51C    basis set group =>   4
Atom  52H    basis set group =>   5
Atom  53C    basis set group =>   4
Atom  54H    basis set group =>   5
Atom  55C    basis set group =>   4
Atom  56H    basis set group =>   5
Atom  57C    basis set group =>   4
Atom  58H    basis set group =>   5
Atom  59C    basis set group =>   4
Atom  60C    basis set group =>   4
Atom  61C    basis set group =>   4
Atom  62C    basis set group =>   4
Atom  63C    basis set group =>   4
Atom  64H    basis set group =>   5
Atom  65C    basis set group =>   4
Atom  66H    basis set group =>   5
Atom  67C    basis set group =>   4
Atom  68H    basis set group =>   5
Atom  69C    basis set group =>   4
Atom  70H    basis set group =>   5
Atom  71C    basis set group =>   4
Atom  72C    basis set group =>   4
Atom  73C    basis set group =>   4
Atom  74C    basis set group =>   4
Atom  75C    basis set group =>   4
Atom  76C    basis set group =>   4
Atom  77H    basis set group =>   5
Atom  78C    basis set group =>   4
Atom  79H    basis set group =>   5
Atom  80C    basis set group =>   4
Atom  81H    basis set group =>   5
Atom  82C    basis set group =>   4
Atom  83C    basis set group =>   4
Atom  84H    basis set group =>   5
Atom  85H    basis set group =>   5
Atom  86H    basis set group =>   5
Atom  87C    basis set group =>   4
Atom  88H    basis set group =>   5
Atom  89H    basis set group =>   5
Atom  90H    basis set group =>   5
Atom  91C    basis set group =>   4
Atom  92C    basis set group =>   4
Atom  93C    basis set group =>   4
Atom  94C    basis set group =>   4
Atom  95H    basis set group =>   5
Atom  96C    basis set group =>   4
Atom  97H    basis set group =>   5
Atom  98C    basis set group =>   4
Atom  99H    basis set group =>   5
Atom 100C    basis set group =>   4
Atom 101C    basis set group =>   4
Atom 102H    basis set group =>   5
Atom 103H    basis set group =>   5
Atom 104H    basis set group =>   5
Atom 105C    basis set group =>   4
Atom 106H    basis set group =>   5
Atom 107H    basis set group =>   5
Atom 108H    basis set group =>   5
---------------------------------
AUXILIARY/J BASIS SET INFORMATION
---------------------------------
There are 5 groups of distinct atoms

 Group   1 Type Ir  : 30s10p8d6f5g contracted to 30s10p8d6f5g pattern {111111111111111111111111111111/1111111111/11111111/111111/11111}
 Group   2 Type S   : 14s5p5d2f1g contracted to 14s5p5d2f1g pattern {11111111111111/11111/11111/11/1}
 Group   3 Type N   : 12s5p4d2f1g contracted to 12s5p4d2f1g pattern {111111111111/11111/1111/11/1}
 Group   4 Type C   : 12s5p4d2f1g contracted to 12s5p4d2f1g pattern {111111111111/11111/1111/11/1}
 Group   5 Type H   : 5s2p1d contracted to 5s2p1d pattern {11111/11/1}

Atom   0Ir   basis set group =>   1
Atom   1S    basis set group =>   2
Atom   2S    basis set group =>   2
Atom   3N    basis set group =>   3
Atom   4N    basis set group =>   3
Atom   5N    basis set group =>   3
Atom   6N    basis set group =>   3
Atom   7C    basis set group =>   4
Atom   8C    basis set group =>   4
Atom   9H    basis set group =>   5
Atom  10C    basis set group =>   4
Atom  11H    basis set group =>   5
Atom  12C    basis set group =>   4
Atom  13H    basis set group =>   5
Atom  14C    basis set group =>   4
Atom  15H    basis set group =>   5
Atom  16C    basis set group =>   4
Atom  17C    basis set group =>   4
Atom  18C    basis set group =>   4
Atom  19H    basis set group =>   5
Atom  20C    basis set group =>   4
Atom  21H    basis set group =>   5
Atom  22C    basis set group =>   4
Atom  23H    basis set group =>   5
Atom  24C    basis set group =>   4
Atom  25H    basis set group =>   5
Atom  26C    basis set group =>   4
Atom  27C    basis set group =>   4
Atom  28C    basis set group =>   4
Atom  29C    basis set group =>   4
Atom  30C    basis set group =>   4
Atom  31H    basis set group =>   5
Atom  32C    basis set group =>   4
Atom  33H    basis set group =>   5
Atom  34C    basis set group =>   4
Atom  35H    basis set group =>   5
Atom  36C    basis set group =>   4
Atom  37H    basis set group =>   5
Atom  38C    basis set group =>   4
Atom  39C    basis set group =>   4
Atom  40C    basis set group =>   4
Atom  41C    basis set group =>   4
Atom  42H    basis set group =>   5
Atom  43C    basis set group =>   4
Atom  44H    basis set group =>   5
Atom  45C    basis set group =>   4
Atom  46H    basis set group =>   5
Atom  47C    basis set group =>   4
Atom  48H    basis set group =>   5
Atom  49C    basis set group =>   4
Atom  50C    basis set group =>   4
Atom  51C    basis set group =>   4
Atom  52H    basis set group =>   5
Atom  53C    basis set group =>   4
Atom  54H    basis set group =>   5
Atom  55C    basis set group =>   4
Atom  56H    basis set group =>   5
Atom  57C    basis set group =>   4
Atom  58H    basis set group =>   5
Atom  59C    basis set group =>   4
Atom  60C    basis set group =>   4
Atom  61C    basis set group =>   4
Atom  62C    basis set group =>   4
Atom  63C    basis set group =>   4
Atom  64H    basis set group =>   5
Atom  65C    basis set group =>   4
Atom  66H    basis set group =>   5
Atom  67C    basis set group =>   4
Atom  68H    basis set group =>   5
Atom  69C    basis set group =>   4
Atom  70H    basis set group =>   5
Atom  71C    basis set group =>   4
Atom  72C    basis set group =>   4
Atom  73C    basis set group =>   4
Atom  74C    basis set group =>   4
Atom  75C    basis set group =>   4
Atom  76C    basis set group =>   4
Atom  77H    basis set group =>   5
Atom  78C    basis set group =>   4
Atom  79H    basis set group =>   5
Atom  80C    basis set group =>   4
Atom  81H    basis set group =>   5
Atom  82C    basis set group =>   4
Atom  83C    basis set group =>   4
Atom  84H    basis set group =>   5
Atom  85H    basis set group =>   5
Atom  86H    basis set group =>   5
Atom  87C    basis set group =>   4
Atom  88H    basis set group =>   5
Atom  89H    basis set group =>   5
Atom  90H    basis set group =>   5
Atom  91C    basis set group =>   4
Atom  92C    basis set group =>   4
Atom  93C    basis set group =>   4
Atom  94C    basis set group =>   4
Atom  95H    basis set group =>   5
Atom  96C    basis set group =>   4
Atom  97H    basis set group =>   5
Atom  98C    basis set group =>   4
Atom  99H    basis set group =>   5
Atom 100C    basis set group =>   4
Atom 101C    basis set group =>   4
Atom 102H    basis set group =>   5
Atom 103H    basis set group =>   5
Atom 104H    basis set group =>   5
Atom 105C    basis set group =>   4
Atom 106H    basis set group =>   5
Atom 107H    basis set group =>   5
Atom 108H    basis set group =>   5


           ************************************************************
           *        Program running with 8 parallel MPI-processes     *
           *              working on a common directory               *
           ************************************************************
------------------------------------------------------------------------------
                           ORCA GTO INTEGRAL CALCULATION
                           -- RI-GTO INTEGRALS CHOSEN --
------------------------------------------------------------------------------
------------------------------------------------------------------------------
                   ___                                                        
                  /   \      - P O W E R E D   B Y -                         
                 /     \                                                     
                 |  |  |   _    _      __       _____    __    __             
                 |  |  |  | |  | |    /  \     |  _  \  |  |  /  |          
                  \  \/   | |  | |   /    \    | | | |  |  | /  /          
                 / \  \   | |__| |  /  /\  \   | |_| |  |  |/  /          
                |  |  |   |  __  | /  /__\  \  |    /   |      \           
                |  |  |   | |  | | |   __   |  |    \   |  |\   \          
                \     /   | |  | | |  |  |  |  | |\  \  |  | \   \       
                 \___/    |_|  |_| |__|  |__|  |_| \__\ |__|  \__/        
                                                                              
                      - O R C A' S   B I G   F R I E N D -                    
                                      &                                       
                       - I N T E G R A L  F E E D E R -                       
                                                                              
 v1 FN, 2020, v2 2021                                                         
------------------------------------------------------------------------------


Reading SHARK input file Ir_isoCN_5_SOC-wB97XD_def2SVP.SHARKINP.tmp ... ok
----------------------
SHARK INTEGRAL PACKAGE
----------------------

Number of atoms                             ...    109
Number of basis functions                   ...   1257
Number of shells                            ...    569
Maximum angular momentum                    ...      3
Integral batch strategy                     ... SHARK/LIBINT Hybrid
RI-J (if used) integral strategy            ... SPLIT-RIJ (Revised 2003 algorithm where possible)
Printlevel                                  ...      1
Contraction scheme used                     ... SEGMENTED contraction
Coulomb Range Separation                    ... NOT USED
Exchange Range Separation                   ... Long Range
   Mu parameter                             ...  0.250000
   Scaling (regular/separated)              ...  0.195728  0.804272
Finite Nucleus Model                        ... NOT USED
Auxiliary Coulomb fitting basis             ... AVAILABLE
   # of basis functions in Aux-J            ...   5493
   # of shells in Aux-J                     ...   1985
   Maximum angular momentum in Aux-J        ...      4
Auxiliary J/K fitting basis                 ... NOT available
Auxiliary Correlation fitting basis         ... NOT available
Auxiliary 'external' fitting basis          ... NOT available
Integral threshold                          ...     1.000000e-10
Primitive cut-off                           ...     1.000000e-11
Primitive pair pre-selection threshold      ...     1.000000e-11

Calculating pre-screening integrals         ... done (  0.1 sec) Dimension = 569
Organizing shell pair data                  ... done (  0.3 sec)
Shell pair information
Total number of shell pairs                 ...    162165
Shell pairs after pre-screening             ...     79052
Total number of primitive shell pairs       ...    571881
Primitive shell pairs kept                  ...    155270
          la=0 lb=0:  23033 shell pairs
          la=1 lb=0:  29151 shell pairs
          la=1 lb=1:   9370 shell pairs
          la=2 lb=0:   9447 shell pairs
          la=2 lb=1:   6086 shell pairs
          la=2 lb=2:    854 shell pairs
          la=3 lb=0:    604 shell pairs
          la=3 lb=1:    373 shell pairs
          la=3 lb=2:    128 shell pairs
          la=3 lb=3:      6 shell pairs

Calculating one electron integrals          ... done (  0.2 sec)
Calculating RI/J V-Matrix + Cholesky decomp.... done (  2.2 sec)
Calculating Nuclear repulsion               ... done (  0.0 sec) ENN=  14827.342674683690 Eh

SHARK setup successfully completed in   3.5 seconds

Maximum memory used throughout the entire GTOINT-calculation: 183.9 MB


           ************************************************************
           *        Program running with 8 parallel MPI-processes     *
           *              working on a common directory               *
           ************************************************************
------------------------------------------------------------------------------
                          ORCA RELATIVISTIC HAMILTONIAN
------------------------------------------------------------------------------

Relativistic Method            ... ZORA(MP)
Treatment of potential         ... Van Wuellen
Nucleus model                  ... Point Nucleus
Speed of light used            ... 137.03598950000000


            *************************************************
            *         ZERO ORDER REGULAR APPROXIMATION      *
            *                     ZORA(MP)                  *
            *            Programmed by FN according to      *
            *                   C. van Wuellen              *
            *       J. Chem. Phys. (1998) vol 109, 392-399  *
            *************************************************

Terms included in model potential: +V(e,N)+V(C)+V(Xa)+V(VWN-V)
Basis function cutoff value   ... 1.000000e-10
Loading the fitted atomic densities (ZORA)   ... done
Calculating the cutoffs                      ... done
Number of fit functions                      ... 975
Setting up the integration grid ... done

Maximum memory used throughout the entire REL-calculation: 171.6 MB


           ************************************************************
           *        Program running with 8 parallel MPI-processes     *
           *              working on a common directory               *
           ************************************************************
-------------------------------------------------------------------------------
                                 ORCA SCF
-------------------------------------------------------------------------------

------------
SCF SETTINGS
------------
Hamiltonian:
 Density Functional     Method          .... DFT(GTOs)
 Exchange Functional    Exchange        .... WB97X-D3
 Correlation Functional Correlation     .... WB97X-D3
 Gradients option       PostSCFGGA      .... off
 Hybrid DFT is turned on
   Fraction HF Exchange ScalHFX         ....  0.195728
   Scaling of DF-GGA-X  ScalDFX         ....  0.000000
   Scaling of DF-GGA-C  ScalDFC         ....  1.000000
   Scaling of DF-LDA-C  ScalLDAC        ....  1.000000
   Perturbative correction              ....  0.000000
   Density functional embedding theory  .... OFF
 Long-range corrected/Screened/Range-Separated Hybrid DFT is turned on
   Amount of maximum screened exact exchange              ....  0.804272
   Range separation parameter mu (erf(mu*r12)/r12)        ....  0.250000
 RI-approximation to the Coulomb term is turned on
   Number of AuxJ basis functions       .... 5493
   RIJ-COSX (HFX calculated with COS-X)).... on

Relativistic Settings:
 Scalar relativistic method             .... ZORA
 Speed of light used       Velit        ....       137.035989
Orbital energies will be scaled


General Settings:
 Integral files         IntName         .... Ir_isoCN_5_SOC-wB97XD_def2SVP
 Hartree-Fock type      HFTyp           .... RHF
 Total Charge           Charge          ....    1
 Multiplicity           Mult            ....    1
 Number of Electrons    NEL             ....  538
 Basis Dimension        Dim             .... 1257
 Nuclear Repulsion      ENuc            ....  14827.3426746837 Eh

Convergence Acceleration:
 DIIS                   CNVDIIS         .... on
   Start iteration      DIISMaxIt       ....    12
   Startup error        DIISStart       ....  0.200000
   # of expansion vecs  DIISMaxEq       ....     5
   Bias factor          DIISBfac        ....   1.050
   Max. coefficient     DIISMaxC        ....  10.000
 Trust-Rad. Augm. Hess. CNVTRAH         .... auto
   Auto Start mean grad. ratio tolernc. ....  1.125000
   Auto Start start iteration           ....    20
   Auto Start num. interpolation iter.  ....    10
   Max. Number of Micro iterations      ....    16
   Max. Number of Macro iterations      .... Maxiter - #DIIS iter
   Number of Davidson start vectors     ....     2
   Converg. threshold I  (grad. norm)   ....   5.000e-05
   Converg. threshold II (energy diff.) ....   1.000e-06
   Grad. Scal. Fac. for Micro threshold ....   0.100
   Minimum threshold for Micro iter.    ....   0.010
   NR start threshold (gradient norm)   ....   0.001
   Initial trust radius                 ....   0.400
   Minimum AH scaling param. (alpha)    ....   1.000
   Maximum AH scaling param. (alpha)    .... 1000.000
   Orbital update algorithm             .... Taylor
   White noise on init. David. guess    .... on
   Maximum white noise                  ....   0.010
   Quad. conv. algorithm                .... NR
 SOSCF                  CNVSOSCF        .... off
 Level Shifting         CNVShift        .... on
   Level shift para.    LevelShift      ....    0.2500
   Turn off err/grad.   ShiftErr        ....    0.0010
 Zerner damping         CNVZerner       .... off
 Static damping         CNVDamp         .... on
   Fraction old density DampFac         ....    0.7000
   Max. Damping (<1)    DampMax         ....    0.9800
   Min. Damping (>=0)   DampMin         ....    0.0000
   Turn off err/grad.   DampErr         ....    0.1000
 Fernandez-Rico         CNVRico         .... off

SCF Procedure:
 Maximum # iterations   MaxIter         ....   125
 SCF integral mode      SCFMode         .... Direct
   Integral package                     .... SHARK and LIBINT hybrid scheme
 Reset frequency        DirectResetFreq ....    20
 Integral Threshold     Thresh          ....  1.000e-10 Eh
 Primitive CutOff       TCut            ....  1.000e-11 Eh

Convergence Tolerance:
 Convergence Check Mode ConvCheckMode   .... Total+1el-Energy
 Convergence forced     ConvForced      .... 1
 Energy Change          TolE            ....  1.000e-06 Eh
 1-El. energy change                    ....  1.000e-03 Eh
 DIIS Error             TolErr          ....  1.000e-06


Diagonalization of the overlap matrix:
Smallest eigenvalue                        ... 1.940e-04
Time for diagonalization                   ...    0.219 sec
Threshold for overlap eigenvalues          ... 1.000e-08
Number of eigenvalues below threshold      ... 0
Time for construction of square roots      ...    0.187 sec
Total time needed                          ...    0.410 sec

Time for model grid setup =    1.415 sec

------------------------------
INITIAL GUESS: MODEL POTENTIAL
------------------------------
Loading ZORA relativistic densities                ... done
Calculating cut-offs                               ... done
Initializing the effective Hamiltonian             ... done
Setting up the integral package (SHARK)            ... done
Starting the Coulomb interaction                   ... done (   1.8 sec)
Reading the grid                                   ... done
Mapping shells                                     ... done
Starting the XC term evaluation                    ... done (   0.5 sec)
  promolecular density results
     # of electrons  =    539.003550765
     EX              =   -742.752312089
     EC              =    -20.464283563
     EX+EC           =   -763.216595652
Transforming the Hamiltonian                       ... done (   0.1 sec)
Diagonalizing the Hamiltonian                      ... done (   0.2 sec)
Back transforming the eigenvectors                 ... done (   0.1 sec)
Now organizing SCF variables                       ... done
                      ------------------
                      INITIAL GUESS DONE (   4.1 sec)
                      ------------------
-------------------
DFT GRID GENERATION
-------------------

General Integration Accuracy     IntAcc      ... 4.388
Radial Grid Type                 RadialGrid  ... OptM3 with GC (2021)
Angular Grid (max. ang.)         AngularGrid ... 4 (Lebedev-302)
Angular grid pruning method      GridPruning ... 4 (adaptive)
Weight generation scheme         WeightScheme... Becke
Basis function cutoff            BFCut       ... 1.0000e-10
Integration weight cutoff        WCut        ... 1.0000e-14
Angular grids for H and He will be reduced by one unit
Partially contracted basis set               ... off
Rotationally invariant grid construction     ... off

Total number of grid points                  ...   549491
Total number of batches                      ...     8644
Average number of points per batch           ...       63
Average number of grid points per atom       ...     5041
Time for grid setup =    5.433 sec

--------------------
COSX GRID GENERATION
--------------------

GRIDX 1
-------
General Integration Accuracy     IntAcc      ... 3.816
Radial Grid Type                 RadialGrid  ... OptM3 with GC (2021)
Angular Grid (max. ang.)         AngularGrid ... 1 (Lebedev-50)
Angular grid pruning method      GridPruning ... 4 (adaptive)
Weight generation scheme         WeightScheme... Becke
Basis function cutoff            BFCut       ... 1.0000e-10
Integration weight cutoff        WCut        ... 1.0000e-14
Angular grids for H and He will be reduced by one unit
Partially contracted basis set               ... on
Rotationally invariant grid construction     ... off

Total number of grid points                  ...    68408
Total number of batches                      ...     1114
Average number of points per batch           ...       61
Average number of grid points per atom       ...      628
UseSFitting                                  ... on

GRIDX 2
-------
General Integration Accuracy     IntAcc      ... 4.020
Radial Grid Type                 RadialGrid  ... OptM3 with GC (2021)
Angular Grid (max. ang.)         AngularGrid ... 2 (Lebedev-110)
Angular grid pruning method      GridPruning ... 4 (adaptive)
Weight generation scheme         WeightScheme... Becke
Basis function cutoff            BFCut       ... 1.0000e-10
Integration weight cutoff        WCut        ... 1.0000e-14
Angular grids for H and He will be reduced by one unit
Partially contracted basis set               ... on
Rotationally invariant grid construction     ... off

Total number of grid points                  ...   148442
Total number of batches                      ...     2371
Average number of points per batch           ...       62
Average number of grid points per atom       ...     1362
UseSFitting                                  ... on

GRIDX 3
-------
General Integration Accuracy     IntAcc      ... 4.338
Radial Grid Type                 RadialGrid  ... OptM3 with GC (2021)
Angular Grid (max. ang.)         AngularGrid ... 3 (Lebedev-194)
Angular grid pruning method      GridPruning ... 4 (adaptive)
Weight generation scheme         WeightScheme... Becke
Basis function cutoff            BFCut       ... 1.0000e-10
Integration weight cutoff        WCut        ... 1.0000e-14
Angular grids for H and He will be reduced by one unit
Partially contracted basis set               ... on
Rotationally invariant grid construction     ... off

Total number of grid points                  ...   321593
Total number of batches                      ...     5082
Average number of points per batch           ...       63
Average number of grid points per atom       ...     2950
UseSFitting                                  ... on

Time for X-Grid setup             =    5.858 sec


--------------------
CPCM SOLVATION MODEL
--------------------
CPCM parameters:
  Epsilon                                         ...      35.6880
  Refrac                                          ...       1.3442
  Rsolv                                           ...       1.3000
  Surface type                                    ... GAUSSIAN VDW
  Epsilon function type                           ...         CPCM
Solvent:                                     ... ACETONITRILE
SMD-CDS solvent descriptors:
  Soln                                       ...    1.3442
  Soln25                                     ...    1.3416
  Sola                                       ...    0.0700
  Solb                                       ...    0.3200
  Solg                                       ...   41.2500
  Solc                                       ...    0.0000
  Solh                                       ...    0.0000
Radii:
 Radius for Ir used is    3.8172 Bohr (=   2.0200 Ang.)
 Radius for S  used is    4.7054 Bohr (=   2.4900 Ang.)
 Radius for N  used is    3.5716 Bohr (=   1.8900 Ang.)
 Radius for C  used is    3.4960 Bohr (=   1.8500 Ang.)
 Radius for H  used is    2.2677 Bohr (=   1.2000 Ang.)
Calculating surface                               ...        done! (  0.0s)
GEPOL surface points                              ...         5942
GEPOL Volume                                      ...    6252.5713
GEPOL Surface-area                                ...    3087.6753
Calculating surface distance matrix               ...        done! (  0.2s)
Performing Cholesky decomposition & store         ...        done! (  1.8s)
Overall time for CPCM initialization              ...                 2.0s
--------------
SCF ITERATIONS
--------------
ITER       Energy         Delta-E        Max-DP      RMS-DP      [F,P]     Damp
               ***  Starting incremental Fock matrix formation  ***
  0 -21745.1874764253   0.000000000000 0.06581786  0.00080272  1.4656792 0.7000
  1 -21745.6605940433  -0.473117618028 0.04290763  0.00057487  1.0279037 0.7000
  2 -21745.8998581677  -0.239264124331 0.02335113  0.00036181  0.7203443 0.7000
  3 -21746.0462256854  -0.146367517693 0.01999257  0.00023194  0.5045652 0.7000
  4 -21746.1453286018  -0.099102916432 0.01950541  0.00015526  0.3533748 0.7000
  5 -21746.2142346691  -0.068906067325 0.01649224  0.00010842  0.2474925 0.7000
                               ***Turning on DIIS***
  6 -21746.2626393379  -0.048404668760 0.01301195  0.00007817  0.1733405 0.7000
  7 -21746.2967465840  -0.034107246101 0.01082341  0.00006072  0.1214034 0.7000
  8 -21746.3208291077  -0.024082523763 0.02797438  0.00015973  0.0849901 0.0000
  9 -21746.3781716220  -0.057342514279 0.00238835  0.00002083  0.0013077 0.0000
 10 -21746.3783883599  -0.000216737888 0.00309640  0.00002879  0.0007779 0.0000
               *** Restarting incremental Fock matrix formation ***
                                   *** Resetting DIIS ***
 11 -21746.3787570655  -0.000368705612 0.00105207  0.00001327  0.0004941 0.0000
 12 -21746.3787677537  -0.000010688174 0.00047611  0.00000331  0.0007260 0.0000
 13 -21746.3787725246  -0.000004770936 0.00027771  0.00000290  0.0003504 0.0000
 14 -21746.3787749593  -0.000002434637 0.00021511  0.00000237  0.0002002 0.0000
 15 -21746.3787756275  -0.000000668249 0.00007297  0.00000081  0.0000639 0.0000
 16 -21746.3787755505   0.000000076991 0.00002301  0.00000032  0.0000161 0.0000
 17 -21746.3787768020  -0.000001251421 0.00001813  0.00000022  0.0000054 0.0000
                 **** Energy Check signals convergence ****

               *****************************************************
               *                     SUCCESS                       *
               *           SCF CONVERGED AFTER  18 CYCLES          *
               *****************************************************

Old exchange energy                            =   -204.532148800 Eh
New exchange energy                            =   -204.532108617 Eh
Exchange energy change after final integration =      0.000040182 Eh
Total energy after final integration           = -21746.378736456 Eh
Final COS-X integration done in                =   165.763 sec

SMD CDS free energy correction energy :               -13.06209     Kcal/mol
Total Energy after SMD CDS correction =            -21746.399552215 Eh

----------------
TOTAL SCF ENERGY
----------------

Total Energy       :       -21746.39955221 Eh         -591749.61578 eV

Components:
Nuclear Repulsion  :        14827.34267468 Eh          403472.50632 eV
Electronic Energy  :       -36573.74222690 Eh         -995222.12211 eV
One Electron Energy:       -59085.34698518 Eh        -1607794.03014 eV
Two Electron Energy:        22511.60475828 Eh          612571.90803 eV
Max COSX asymmetry :            0.00000842 Eh               0.00023 eV
CPCM Dielectric    :           -0.08338538 Eh              -2.26903 eV
SMD CDS (Gcds)     :           -0.02081576 Eh              -0.56643 eV

Virial components:
Potential Energy   :       -45566.53847643 Eh        -1239928.54869 eV
Kinetic Energy     :        23820.13892422 Eh          648178.93291 eV
Virial Ratio       :            1.91294176


DFT components:
N(Alpha)           :      268.998937145946 electrons
N(Beta)            :      268.998937145946 electrons
N(Total)           :      537.997874291892 electrons
E(XC)              :     -567.827819582849 Eh       
DFET-embed. en.    :        0.000000000000 Eh       
CPCM Solvation Model Properties:
Surface-charge          :           -1.07454632
Charge-correction       :            0.00583672 Eh               0.15883 eV
Free-energy (cav+disp)  :           -0.02081576 Eh              -0.56643 eV

---------------
SCF CONVERGENCE
---------------

  Last Energy change         ...    1.6407e-07  Tolerance :   1.0000e-06
  Last MAX-Density change    ...    0.0000e+00  Tolerance :   1.0000e-05
  Last RMS-Density change    ...    0.0000e+00  Tolerance :   1.0000e-06
  Last DIIS Error            ...    2.8105e-06  Tolerance :   1.0000e-06

             **** THE GBW FILE WAS UPDATED (Ir_isoCN_5_SOC-wB97XD_def2SVP.gbw) ****
             **** DENSITY Ir_isoCN_5_SOC-wB97XD_def2SVP.scfp WAS UPDATED ****
             **** ENERGY FILE WAS UPDATED (Ir_isoCN_5_SOC-wB97XD_def2SVP.en.tmp) ****
             **** THE GBW FILE WAS UPDATED (Ir_isoCN_5_SOC-wB97XD_def2SVP.gbw) ****
             **** DENSITY Ir_isoCN_5_SOC-wB97XD_def2SVP.scfp WAS UPDATED ****
----------------
ORBITAL ENERGIES
----------------

  NO   OCC          E(Eh)            E(eV) 
   0   2.0000   -3055.137761    -83134.5249 
   1   2.0000    -500.085256    -13608.0116 
   2   2.0000    -433.825177    -11804.9832 
   3   2.0000    -433.824680    -11804.9697 
   4   2.0000    -433.824580    -11804.9670 
   5   2.0000    -116.143557     -3160.4269 
   6   2.0000     -97.072394     -2641.4741 
   7   2.0000     -97.071253     -2641.4431 
   8   2.0000     -97.070952     -2641.4349 
   9   2.0000     -89.571086     -2437.3532 
  10   2.0000     -89.571048     -2437.3521 
  11   2.0000     -76.149030     -2072.1204 
  12   2.0000     -76.148484     -2072.1056 
  13   2.0000     -76.148064     -2072.0942 
  14   2.0000     -76.146872     -2072.0617 
  15   2.0000     -76.146615     -2072.0547 
  16   2.0000     -25.027462      -681.0319 
  17   2.0000     -18.774454      -510.8789 
  18   2.0000     -18.771012      -510.7852 
  19   2.0000     -18.770894      -510.7820 
  20   2.0000     -14.514377      -394.9563 
  21   2.0000     -14.514363      -394.9559 
  22   2.0000     -14.507475      -394.7685 
  23   2.0000     -14.507312      -394.7640 
  24   2.0000     -11.096097      -301.9401 
  25   2.0000     -11.094581      -301.8989 
  26   2.0000     -11.091888      -301.8256 
  27   2.0000     -11.089297      -301.7551 
  28   2.0000     -11.089200      -301.7525 
  29   2.0000     -10.388237      -282.6783 
  30   2.0000     -10.388182      -282.6768 
  31   2.0000     -10.386524      -282.6317 
  32   2.0000     -10.386337      -282.6266 
  33   2.0000     -10.358048      -281.8568 
[...]
   0  57   33723.9    296.5     -4.98601 (  0.00003, -0.00014) ( -0.00011,  0.00057) ( -0.00646,  0.03330)
   0  58   33740.5    296.4     -0.19516 ( -0.00032,  0.00006) ( -0.00004,  0.00001) (  0.00632, -0.00124)
   0  59   33913.5    294.9     19.12506 (  0.00205,  0.00014) ( -0.04964, -0.00335) ( -0.00022, -0.00002)
   0  60   34038.4    293.8    -26.57161 ( -0.00108,  0.00211) (  0.00062, -0.00121) ( -0.01946,  0.03795)
   0  61   34396.8    290.7     27.84337 ( -0.01880, -0.10409) (  0.03154,  0.17469) (  0.00043,  0.00237)
   0  62   34517.2    289.7     -8.35336 (  0.00412,  0.00697) ( -0.00384, -0.00650) (  0.01130,  0.01914)
   0  63   34774.2    287.6      3.07787 ( -0.00392, -0.00927) (  0.01514,  0.03581) ( -0.00003, -0.00006)
   0  64   34896.6    286.6      5.83601 (  0.00127,  0.00021) (  0.00056,  0.00010) ( -0.02354, -0.00399)
   0  65   35257.9    283.6      1.48078 ( -0.07793,  0.05227) (  0.04649, -0.03118) (  0.00137, -0.00092)
   0  66   35368.7    282.7     -0.80705 ( -0.00205, -0.00008) (  0.00125,  0.00005) ( -0.07676, -0.00306)
   0  67   35402.1    282.5      0.75771 (  0.00651, -0.02080) ( -0.00702,  0.02244) (  0.00008, -0.00026)
   0  68   35405.9    282.4     -0.21716 ( -0.00102, -0.00004) (  0.00051,  0.00002) ( -0.02307, -0.00099)
   0  69   35428.7    282.3      1.20109 (  0.00067, -0.00005) ( -0.00001,  0.00000) ( -0.02298,  0.00167)
   0  70   35509.7    281.6      0.05036 (  0.00937, -0.00984) (  0.00066, -0.00069) ( -0.00002,  0.00002)
   0  71   35699.8    280.1      0.06062 (  0.00338,  0.00026) ( -0.00310, -0.00024) (  0.06295,  0.00490)
   0  72   35719.2    280.0      9.37340 (  0.10272, -0.05454) ( -0.09167,  0.04868) ( -0.00075,  0.00040)
   0  73   35883.0    278.7     -0.00001 (  0.00034, -0.00015) ( -0.00055,  0.00024) (  0.00074, -0.00032)
   0  74   35883.0    278.7      0.00034 (  0.00079, -0.00024) ( -0.00015,  0.00005) (  0.00032, -0.00010)
   0  75   35883.1    278.7      0.01052 (  0.00285, -0.00168) ( -0.00190,  0.00112) ( -0.00101,  0.00060)
   0  76   35891.6    278.6      0.00022 ( -0.00011, -0.00023) (  0.00024,  0.00049) (  0.00034,  0.00068)
   0  77   35891.7    278.6      0.00076 (  0.00083, -0.00041) ( -0.00022,  0.00011) ( -0.00033,  0.00017)
   0  78   35891.8    278.6      0.00922 (  0.00260, -0.00171) ( -0.00176,  0.00116) (  0.00096, -0.00063)
   0  79   36860.8    271.3      1.52387 ( -0.00289,  0.00421) (  0.00200, -0.00291) (  0.02696, -0.03919)
   0  80   36865.2    271.3    -15.57964 ( -0.03305,  0.06266) (  0.02454, -0.04651) (  0.00113, -0.00214)
   0  81   36885.3    271.1      3.76151 (  0.00046, -0.00048) (  0.00041, -0.00043) (  0.05788, -0.06034)
   0  82   37156.6    269.1    -17.78812 (  0.01445,  0.03177) ( -0.00217, -0.00477) ( -0.00185, -0.00408)
   0  83   37298.4    268.1      7.99378 ( -0.00756, -0.00553) (  0.04813,  0.03520) (  0.01106,  0.00809)
   0  84   37378.3    267.5     50.21058 (  0.00228,  0.00007) ( -0.00584, -0.00017) (  0.17659,  0.00508)
   0  85   37430.6    267.2     -0.20999 ( -0.00617,  0.00522) (  0.01541, -0.01303) (  0.00504, -0.00426)
   0  86   37489.3    266.7    -18.75875 ( -0.06397, -0.03692) (  0.01705,  0.00984) ( -0.00189, -0.00109)
   0  87   37534.6    266.4      2.50377 ( -0.00168,  0.00399) ( -0.00012,  0.00028) ( -0.01845,  0.04389)
   0  88   37640.3    265.7     -0.00611 (  0.00093,  0.00123) ( -0.00039, -0.00051) ( -0.00101, -0.00133)
   0  89   37712.0    265.2     -0.25809 ( -0.00075, -0.00023) (  0.00006,  0.00002) (  0.01519,  0.00465)
   0  90   37717.6    265.1      0.30333 (  0.02719,  0.00215) ( -0.01479, -0.00117) (  0.00048,  0.00004)
   0  91   37747.7    264.9      0.91795 (  0.00066, -0.00146) ( -0.00055,  0.00123) (  0.01321, -0.02931)
   0  92   37757.2    264.9      0.63789 ( -0.01860,  0.00127) (  0.01949, -0.00134) (  0.00109, -0.00007)
   0  93   37769.6    264.8     -0.00048 (  0.00120, -0.01678) ( -0.00082,  0.01146) ( -0.00002,  0.00029)
   0  94   37780.4    264.7      0.05939 (  0.00005, -0.00002) (  0.00023, -0.00011) ( -0.00383,  0.00173)
   0  95   37905.1    263.8     -0.43684 (  0.00751, -0.00191) (  0.01822, -0.00464) ( -0.00170,  0.00043)
   0  96   37909.0    263.8     -0.80779 (  0.00045, -0.00186) (  0.00047, -0.00193) (  0.00317, -0.01293)
   0  97   38033.7    262.9      4.67354 (  0.05986,  0.05649) ( -0.06007, -0.05669) ( -0.00006, -0.00005)
   0  98   38040.2    262.9      1.30662 (  0.04277,  0.00826) ( -0.04314, -0.00833) ( -0.00066, -0.00013)
   0  99   38259.3    261.4      8.21579 ( -0.09553, -0.02111) (  0.05494,  0.01214) ( -0.00072, -0.00016)
   0 100   38486.8    259.8      0.31268 ( -0.00334, -0.00111) (  0.00194,  0.00065) (  0.00951,  0.00317)
   0 101   38563.8    259.3      0.92328 (  0.03461, -0.11389) ( -0.02538,  0.08351) (  0.00056, -0.00185)
   0 102   38716.2    258.3      0.05913 ( -0.00314, -0.00078) (  0.00446,  0.00110) ( -0.00356, -0.00088)
   0 103   38742.5    258.1     -0.51602 (  0.00026,  0.00461) (  0.00024,  0.00423) ( -0.00019, -0.00339)
   0 104   38757.4    258.0     -3.21895 ( -0.00065, -0.00023) (  0.00222,  0.00080) (  0.04339,  0.01560)
   0 105   38880.7    257.2      1.31110 (  0.03314, -0.01435) (  0.00278, -0.00120) ( -0.00500,  0.00217)
   0 106   38909.5    257.0     -2.23068 ( -0.00014, -0.00002) ( -0.00391, -0.00065) ( -0.03895, -0.00650)
   0 107   38998.5    256.4      0.57910 (  0.01765,  0.01849) ( -0.01670, -0.01749) (  0.00082,  0.00086)
   0 108   39073.0    255.9     -5.74072 ( -0.00031, -0.00155) (  0.00036,  0.00177) (  0.02070,  0.10237)
   0 109   39314.9    254.4      5.70904 (  0.00596, -0.05912) ( -0.00680,  0.06740) (  0.00007, -0.00066)
   0 110   39343.9    254.2      0.18424 (  0.00625, -0.05089) ( -0.00443,  0.03606) (  0.00091, -0.00737)
   0 111   39345.4    254.2      0.29437 ( -0.00943, -0.05047) (  0.00710,  0.03797) (  0.00169,  0.00905)
   0 112   39459.2    253.4     -1.63061 (  0.00026, -0.00055) ( -0.00007,  0.00016) ( -0.02241,  0.04811)
   0 113   39534.9    252.9      0.25002 ( -0.00816,  0.00965) (  0.00490, -0.00580) (  0.00023, -0.00028)
   0 114   39551.2    252.8     -0.44300 ( -0.00205,  0.00072) (  0.00161, -0.00057) (  0.02401, -0.00848)
   0 115   39722.5    251.7     12.33683 ( -0.00085,  0.04127) ( -0.00009,  0.00432) (  0.00000, -0.00021)
   0 116   39814.2    251.2     -1.73181 (  0.00004,  0.00019) (  0.00017,  0.00076) ( -0.01264, -0.05524)
   0 117   39854.0    250.9     10.07861 (  0.02214, -0.07165) ( -0.00621,  0.02011) ( -0.00059,  0.00191)
   0 118   39982.2    250.1     -2.04633 (  0.00316,  0.00815) ( -0.00482, -0.01243) (  0.04093,  0.10559)
   0 119   40015.3    249.9    -22.76955 ( -0.00237, -0.01422) (  0.00339,  0.02039) ( -0.01170, -0.07034)
   0 120   40052.1    249.7     16.30684 ( -0.08388, -0.18185) (  0.12829,  0.27815) (  0.00567,  0.01229)
   0 121   40223.6    248.6     -0.24196 ( -0.00172, -0.00072) (  0.00257,  0.00108) ( -0.00586, -0.00246)
   0 122   40225.2    248.6     -0.90632 (  0.00891, -0.08768) ( -0.01174,  0.11558) (  0.00016, -0.00161)
   0 123   40237.8    248.5     -2.23014 (  0.04176, -0.02531) ( -0.04395,  0.02663) (  0.01446, -0.00876)
   0 124   40247.6    248.5     -2.78025 (  0.00494, -0.02992) ( -0.00567,  0.03438) ( -0.00653,  0.03957)
   0 125   40262.3    248.4      4.58447 ( -0.03586,  0.02540) (  0.03830, -0.02712) ( -0.00031,  0.00022)
   0 126   40307.0    248.1      1.49099 (  0.00002, -0.00001) ( -0.00004,  0.00001) ( -0.04909,  0.01541)
   0 127   40461.6    247.1     20.82300 (  0.00461,  0.01220) ( -0.00351, -0.00929) ( -0.03097, -0.08202)
   0 128   40525.2    246.8    -72.58360 (  0.16109, -0.23909) ( -0.12413,  0.18424) (  0.00042, -0.00062)
   0 129   40606.1    246.3     -0.17209 ( -0.00073,  0.00011) ( -0.00060,  0.00009) ( -0.00221,  0.00033)
   0 130   40677.4    245.8     -7.88462 (  0.02143,  0.04790) ( -0.01126, -0.02516) ( -0.00024, -0.00054)
   0 131   40820.7    245.0      0.55424 ( -0.01540,  0.04940) (  0.02349, -0.07534) (  0.00109, -0.00348)
   0 132   40878.8    244.6     16.46293 ( -0.00000, -0.00658) (  0.00000,  0.00499) ( -0.00005, -0.08972)
   0 133   40931.7    244.3     -6.12424 (  0.03234,  0.07082) (  0.00551,  0.01207) ( -0.00140, -0.00306)
   0 134   41048.3    243.6     -0.46090 (  0.00441,  0.00084) ( -0.00161, -0.00031) (  0.01328,  0.00254)
   0 135   41082.8    243.4     -3.13523 (  0.07519, -0.06120) ( -0.04951,  0.04029) ( -0.00069,  0.00056)
   0 136   41152.0    243.0      5.86923 ( -0.24857,  0.07402) (  0.10752, -0.03202) (  0.00308, -0.00092)
   0 137   41227.5    242.6      6.09064 (  0.00011, -0.00272) ( -0.00020,  0.00497) (  0.00750, -0.18865)
   0 138   41353.3    241.8      1.83766 ( -0.00689, -0.01677) (  0.02160,  0.05258) (  0.00182,  0.00443)
   0 139   41357.5    241.8     -1.89748 (  0.00007, -0.00030) ( -0.00075,  0.00330) ( -0.00445,  0.01961)
   0 140   41408.8    241.5      1.20216 ( -0.00001,  0.00010) (  0.00002, -0.00023) (  0.00529, -0.06237)
   0 141   41596.6    240.4    -22.06134 ( -0.07398, -0.00770) ( -0.11615, -0.01208) ( -0.00111, -0.00012)
   0 142   41673.0    240.0    -11.41298 ( -0.00672,  0.00294) (  0.00165, -0.00072) ( -0.08178,  0.03579)
   0 143   41719.9    239.7    -90.16232 (  0.02496, -0.03948) ( -0.13564,  0.21455) ( -0.00190,  0.00300)
   0 144   41894.1    238.7     -0.60820 ( -0.00524, -0.01978) ( -0.00377, -0.01423) ( -0.00507, -0.01912)
   0 145   41929.2    238.5      5.05526 ( -0.03821, -0.15501) ( -0.03269, -0.13261) ( -0.00035, -0.00141)
   0 146   41983.0    238.2      2.61844 ( -0.03539,  0.01581) (  0.01888, -0.00844) (  0.00249, -0.00111)
   0 147   42070.2    237.7     -6.16617 ( -0.00308, -0.02479) ( -0.00216, -0.01739) ( -0.00989, -0.07953)
   0 148   42127.5    237.4      3.05939 ( -0.23136,  0.39910) ( -0.15878,  0.27390) ( -0.00605,  0.01044)
   0 149   42131.7    237.4    -14.01388 (  0.02459, -0.12443) (  0.00319, -0.01614) (  0.01380, -0.06983)
   0 150   42133.7    237.3    -45.05508 (  0.14818, -0.27382) (  0.05852, -0.10815) ( -0.02757,  0.05094)
   0 151   42323.0    236.3    -31.32474 ( -0.00773,  0.00996) (  0.00283, -0.00365) ( -0.07271,  0.09370)
   0 152   42440.7    235.6     -1.15679 ( -0.00364, -0.05861) (  0.00286,  0.04607) (  0.00624,  0.10043)
   0 153   42445.7    235.6     -6.60949 (  0.08676,  0.03579) (  0.06000,  0.02475) ( -0.02936, -0.01211)
   0 154   42453.2    235.6     -7.97914 (  0.02259, -0.18275) ( -0.01349,  0.10909) (  0.00357, -0.02890)
   0 155   42474.5    235.4     -5.42323 ( -0.01841, -0.01353) ( -0.00931, -0.00684) ( -0.04176, -0.03070)
   0 156   42539.0    235.1      0.81725 (  0.01907,  0.02443) ( -0.01386, -0.01776) (  0.00908,  0.01163)
   0 157   42570.9    234.9     -0.56813 ( -0.02417,  0.00236) (  0.04217, -0.00412) (  0.00055, -0.00005)
   0 158   42591.4    234.8     -0.99152 (  0.00114, -0.00157) ( -0.00189,  0.00262) (  0.03082, -0.04274)
   0 159   42598.2    234.8     20.41739 (  0.02701, -0.20979) ( -0.01702,  0.13223) ( -0.00071,  0.00553)
   0 160   42604.1    234.7     -0.33514 (  0.00417,  0.02976) ( -0.00293, -0.02091) ( -0.00172, -0.01225)
   0 161   42629.5    234.6     22.35634 ( -0.21707, -0.07849) (  0.10768,  0.03894) (  0.00123,  0.00044)
   0 162   42669.1    234.4      0.08224 ( -0.01814, -0.00913) (  0.02083,  0.01049) (  0.02173,  0.01094)
   0 163   42712.5    234.1      8.09247 (  0.04366, -0.00619) ( -0.10091,  0.01430) (  0.00214, -0.00030)
   0 164   42760.0    233.9    186.26388 (  0.18558,  0.56702) ( -0.13559, -0.41426) ( -0.00327, -0.01000)
   0 165   42773.5    233.8     14.17913 (  0.13774,  0.13762) ( -0.10241, -0.10232) (  0.02126,  0.02124)
   0 166   42888.4    233.2     -9.51756 ( -0.00063,  0.00220) (  0.00342, -0.01202) (  0.01471, -0.05177)
   0 167   42957.1    232.8      7.58190 ( -0.07807, -0.05467) (  0.02027,  0.01419) ( -0.00319, -0.00224)
   0 168   42970.8    232.7     10.35753 ( -0.11325, -0.06226) (  0.00585,  0.00321) (  0.00163,  0.00090)
   0 169   42984.6    232.6    105.45906 ( -0.19783,  0.21116) (  0.21191, -0.22619) (  0.00259, -0.00276)
   0 170   43025.0    232.4    -118.43977 (  0.00568, -0.01302) ( -0.00310,  0.00711) (  0.05112, -0.11726)
   0 171   43045.9    232.3     39.38336 ( -0.02643, -0.18028) (  0.01690,  0.11529) (  0.00304,  0.02076)
   0 172   43107.8    232.0    -14.49852 ( -0.00087,  0.00474) (  0.00194, -0.01049) (  0.01211, -0.06562)
   0 173   43178.6    231.6     29.18617 ( -0.22183,  0.00230) (  0.39710, -0.00411) (  0.00208, -0.00002)
   0 174   43209.7    231.4     -7.21108 (  0.02031, -0.00447) ( -0.02770,  0.00610) (  0.04608, -0.01014)
   0 175   43249.6    231.2    -39.53786 ( -0.02315,  0.19424) (  0.04327, -0.36299) ( -0.00030,  0.00248)
   0 176   43300.1    230.9    172.67380 ( -0.23150, -0.34959) (  0.24123,  0.36428) (  0.00008,  0.00012)
   0 177   43389.3    230.5     73.49017 ( -0.00077, -0.00336) (  0.00080,  0.00350) ( -0.02498, -0.10943)
   0 178   43481.8    230.0    -124.30616 (  0.00094,  0.00224) ( -0.00239, -0.00570) ( -0.10776, -0.25682)
   0 179   43924.8    227.7    -41.35827 ( -0.06003, -0.05669) ( -0.05068, -0.04786) (  0.00710,  0.00671)
   0 180   44011.1    227.2    -20.25417 ( -0.00012,  0.00012) ( -0.00546,  0.00526) ( -0.03728,  0.03588)
   0 181   44399.0    225.2    -17.83473 ( -0.00239,  0.00194) (  0.00092, -0.00074) ( -0.12933,  0.10517)
   0 182   44612.3    224.2    -19.44986 ( -0.07216, -0.07430) ( -0.01092, -0.01124) (  0.00058,  0.00060)
   0 183   44748.3    223.5    153.05870 ( -0.00635, -0.23021) (  0.00339,  0.12288) (  0.00030,  0.01093)
   0 184   44798.6    223.2     14.69511 ( -0.00206, -0.01333) (  0.00115,  0.00744) ( -0.02816, -0.18179)
   0 185   44855.8    222.9     14.50676 (  0.09003,  0.13357) ( -0.02304, -0.03417) (  0.00227,  0.00337)
   0 186   45078.9    221.8     -3.18467 ( -0.00025, -0.00129) (  0.00033,  0.00173) ( -0.04094, -0.21488)
   0 187   45584.4    219.4    -227.98022 (  0.00253,  0.00456) (  0.00036,  0.00064) (  0.14590,  0.26218)
   0 188   45631.7    219.1    -132.71848 ( -0.24638,  0.11139) (  0.06390, -0.02889) (  0.00291, -0.00131)
   0 189   46601.8    214.6     21.33185 (  0.00011, -0.00030) (  0.00192, -0.00505) (  0.05093, -0.13415)
   0 190   46741.4    213.9    -21.55698 (  0.01172, -0.02315) ( -0.05522,  0.10904) (  0.00393, -0.00777)
   0 191   46910.0    213.2    -11.51999 ( -0.00072, -0.00363) ( -0.00147, -0.00737) ( -0.01967, -0.09841)
   0 192   46945.7    213.0     -3.52667 ( -0.02478, -0.03887) ( -0.05458, -0.08562) (  0.00299,  0.00469)
   0 193   47151.2    212.1     -4.57751 (  0.00054,  0.00077) ( -0.00063, -0.00089) ( -0.02104, -0.03000)
   0 194   47524.4    210.4    -27.26108 ( -0.00085, -0.06468) (  0.00369,  0.27984) ( -0.00004, -0.00300)
   0 195   47630.2    210.0    -17.24038 (  0.00001, -0.00006) (  0.00095, -0.00493) ( -0.01151,  0.05993)
   0 196   47973.8    208.4     45.95976 (  0.00411,  0.00629) ( -0.01105, -0.01693) (  0.11281,  0.17277)
   0 197   47995.0    208.4     42.58679 ( -0.00152,  0.07046) (  0.00486, -0.22536) (  0.00033, -0.01507)
   0 198   48308.9    207.0    -52.10507 ( -0.07461, -0.03362) (  0.29627,  0.13348) ( -0.00000, -0.00000)
   0 199   48620.0    205.7     -0.78529 ( -0.00000, -0.00004) (  0.00009,  0.00143) ( -0.00017, -0.00262)
   0 200   48745.1    205.1    -63.37952 ( -0.18360,  0.14348) ( -0.07546,  0.05897) (  0.00079, -0.00061)

*The complex numbers are printed as (real, imaginary)

The electronic components of the SOC ground state dipole moment in a.u. are:
           X                     Y                     Z
( -0.05853,  0.00000) ( -0.29824, -0.00000) (-19.65203,  0.00000)

Total run time:     6323.682 sec

           *** ORCA-CIS/TD-DFT FINISHED WITHOUT ERROR ***

Maximum memory used throughout the entire CIS-calculation: 12953.2 MB

---------------------------
SOC CIS/TD-DFT TOTAL ENERGY
---------------------------

    E(SCF)        = -21746.399552215 Eh
    E(SOC CIS)    =      0.075960958 Eh (SOC Root  1)
    ----------------------------- ---------
    E(tot)        = -21746.323591257 Eh



-------------------------------------------------------------------------------
                          DFT DISPERSION CORRECTION                            
                                                                               
                              DFTD3 V3.1  Rev 1                                
                              USING zero damping                               
-------------------------------------------------------------------------------
The omegaB97X-D3 functional is recognized. Fit by Chai et al.
Active option DFTDOPT                   ...         3   

molecular C6(AA) [au] = 182492.497911 


            DFT-D V3
 parameters
 s6 scaling factor         :     1.0000 
 rs6 scaling factor        :     1.2810 
 s8 scaling factor         :     1.0000 
 rs8 scaling factor        :     1.0940 
 Damping factor alpha6     :    14.0000 
 Damping factor alpha8     :    16.0000 
 ad hoc parameters k1-k3   :    16.0000     1.3333    -4.0000 

 Edisp/kcal,au: -57.368744343869  -0.091422903710 
 E6   /kcal   : -29.767652765 
 E8   /kcal   : -27.601091579 
 % E8         :  48.111723369 

-------------------------   ----------------
Dispersion correction           -0.091422904
-------------------------   ----------------


-------------------------   --------------------
FINAL SINGLE POINT ENERGY    -21746.415014160579
-------------------------   --------------------


                            ***************************************
                            *     ORCA property calculations      *
                            ***************************************

                                    ---------------------
                                    Active property flags
                                    ---------------------
   (+) Dipole Moment


------------------------------------------------------------------------------
                       ORCA ELECTRIC PROPERTIES CALCULATION
------------------------------------------------------------------------------

Dipole Moment Calculation                       ... on
Quadrupole Moment Calculation                   ... off
Polarizability Calculation                      ... off
GBWName                                         ... Ir_isoCN_5_SOC-wB97XD_def2SVP.gbw
Electron density                                ... Ir_isoCN_5_SOC-wB97XD_def2SVP.scfp
The origin for moment calculation is the CENTER OF MASS  = (-0.000125, -0.000560 -0.041624)

-------------
DIPOLE MOMENT
-------------
                                X             Y             Z
Electronic contribution:     -0.05863      -0.29810     -19.64479
Nuclear contribution   :      0.06709       0.30212      22.43564
                        -----------------------------------------
Total Dipole Moment    :      0.00846       0.00402       2.79085
                        -----------------------------------------
Magnitude (a.u.)       :      2.79087
Magnitude (Debye)      :      7.09382



--------------------
Rotational spectrum 
--------------------
 
Rotational constants in cm-1:     0.001239     0.001163     0.001091 
Rotational constants in MHz :    37.131925    34.864223    32.698814 

 Dipole components along the rotational axes: 
x,y,z [a.u.] :     0.008543     0.003594     2.790851 
x,y,z [Debye]:     0.021716     0.009135     7.093780 

 

Timings for individual modules:

Sum of individual times         ...     7497.312 sec (= 124.955 min)
GTO integral calculation        ...        5.461 sec (=   0.091 min)   0.1 %
Relativistic integrals          ...       13.499 sec (=   0.225 min)   0.2 %
SCF iterations                  ...     1153.657 sec (=  19.228 min)  15.4 %
CIS module                      ...     6324.696 sec (= 105.412 min)  84.4 %
                             ****ORCA TERMINATED NORMALLY****
TOTAL RUN TIME: 0 days 2 hours 4 minutes 59 seconds 191 msec
