
                                 *****************
                                 * O   R   C   A *
                                 *****************

                                            #,                                       
                                            ###                                      
                                            ####                                     
                                            #####                                    
                                            ######                                   
                                           ########,                                 
                                     ,,################,,,,,                         
                               ,,#################################,,                 
                          ,,##########################################,,             
                       ,#########################################, ''#####,          
                    ,#############################################,,   '####,        
                  ,##################################################,,,,####,       
                ,###########''''           ''''###############################       
              ,#####''   ,,,,##########,,,,          '''####'''          '####       
            ,##' ,,,,###########################,,,                        '##       
           ' ,,###''''                  '''############,,,                           
         ,,##''                                '''############,,,,        ,,,,,,###''
      ,#''                                            '''#######################'''  
     '                                                          ''''####''''         
             ,#######,   #######,   ,#######,      ##                                
            ,#'     '#,  ##    ##  ,#'     '#,    #''#        ######   ,####,        
            ##       ##  ##   ,#'  ##            #'  '#       #        #'  '#        
            ##       ##  #######   ##           ,######,      #####,   #    #        
            '#,     ,#'  ##    ##  '#,     ,#' ,#      #,         ##   #,  ,#        
             '#######'   ##     ##  '#######'  #'      '#     #####' # '####'        



                  #######################################################
                  #                        -***-                        #
                  #          Department of theory and spectroscopy      #
                  #    Directorship and core code : Frank Neese         #
                  #        Max Planck Institute fuer Kohlenforschung    #
                  #                Kaiser Wilhelm Platz 1               #
                  #                 D-45470 Muelheim/Ruhr               #
                  #                      Germany                        #
                  #                                                     #
                  #                  All rights reserved                #
                  #                        -***-                        #
                  #######################################################


                         Program Version 5.0.4 -  RELEASE  -


 With contributions from (in alphabetic order):
   Daniel Aravena         : Magnetic Suceptibility
   Michael Atanasov       : Ab Initio Ligand Field Theory (pilot matlab implementation)
   Alexander A. Auer      : GIAO ZORA, VPT2 properties, NMR spectrum
   Ute Becker             : Parallelization
   Giovanni Bistoni       : ED, misc. LED, open-shell LED, HFLD
   Martin Brehm           : Molecular dynamics
   Dmytro Bykov           : SCF Hessian
   Vijay G. Chilkuri      : MRCI spin determinant printing, contributions to CSF-ICE
   Dipayan Datta          : RHF DLPNO-CCSD density
   Achintya Kumar Dutta   : EOM-CC, STEOM-CC
   Dmitry Ganyushin       : Spin-Orbit,Spin-Spin,Magnetic field MRCI
   Miquel Garcia          : C-PCM and meta-GGA Hessian, CC/C-PCM, Gaussian charge scheme
   Yang Guo               : DLPNO-NEVPT2, F12-NEVPT2, CIM, IAO-localization
   Andreas Hansen         : Spin unrestricted coupled pair/coupled cluster methods
   Benjamin Helmich-Paris : MC-RPA, TRAH-SCF, COSX integrals
   Lee Huntington         : MR-EOM, pCC
   Robert Izsak           : Overlap fitted RIJCOSX, COSX-SCS-MP3, EOM
   Marcus Kettner         : VPT2
   Christian Kollmar      : KDIIS, OOCD, Brueckner-CCSD(T), CCSD density, CASPT2, CASPT2-K
   Simone Kossmann        : Meta GGA functionals, TD-DFT gradient, OOMP2, MP2 Hessian
   Martin Krupicka        : Initial AUTO-CI
   Lucas Lang             : DCDCAS
   Marvin Lechner         : AUTO-CI (C++ implementation), FIC-MRCC
   Dagmar Lenk            : GEPOL surface, SMD
   Dimitrios Liakos       : Extrapolation schemes; Compound Job, initial MDCI parallelization
   Dimitrios Manganas     : Further ROCIS development; embedding schemes
   Dimitrios Pantazis     : SARC Basis sets
   Anastasios Papadopoulos: AUTO-CI, single reference methods and gradients
   Taras Petrenko         : DFT Hessian,TD-DFT gradient, ASA, ECA, R-Raman, ABS, FL, XAS/XES, NRVS
   Peter Pinski           : DLPNO-MP2, DLPNO-MP2 Gradient
   Christoph Reimann      : Effective Core Potentials
   Marius Retegan         : Local ZFS, SOC
   Christoph Riplinger    : Optimizer, TS searches, QM/MM, DLPNO-CCSD(T), (RO)-DLPNO pert. Triples
   Tobias Risthaus        : Range-separated hybrids, TD-DFT gradient, RPA, STAB
   Michael Roemelt        : Original ROCIS implementation
   Masaaki Saitow         : Open-shell DLPNO-CCSD energy and density
   Barbara Sandhoefer     : DKH picture change effects
   Avijit Sen             : IP-ROCIS
   Kantharuban Sivalingam : CASSCF convergence, NEVPT2, FIC-MRCI
   Bernardo de Souza      : ESD, SOC TD-DFT
   Georgi Stoychev        : AutoAux, RI-MP2 NMR, DLPNO-MP2 response
   Willem Van den Heuvel  : Paramagnetic NMR
   Boris Wezisla          : Elementary symmetry handling
   Frank Wennmohs         : Technical directorship


 We gratefully acknowledge several colleagues who have allowed us to
 interface, adapt or use parts of their codes:
   Stefan Grimme, W. Hujo, H. Kruse, P. Pracht,  : VdW corrections, initial TS optimization,
                  C. Bannwarth, S. Ehlert          DFT functionals, gCP, sTDA/sTD-DF
   Ed Valeev, F. Pavosevic, A. Kumar             : LibInt (2-el integral package), F12 methods
   Garnet Chan, S. Sharma, J. Yang, R. Olivares  : DMRG
   Ulf Ekstrom                                   : XCFun DFT Library
   Mihaly Kallay                                 : mrcc  (arbitrary order and MRCC methods)
   Jiri Pittner, Ondrej Demel                    : Mk-CCSD
   Frank Weinhold                                : gennbo (NPA and NBO analysis)
   Christopher J. Cramer and Donald G. Truhlar   : smd solvation model
   Lars Goerigk                                  : TD-DFT with DH, B97 family of functionals
   V. Asgeirsson, H. Jonsson                     : NEB implementation
   FAccTs GmbH                                   : IRC, NEB, NEB-TS, DLPNO-Multilevel, CI-OPT
                                                   MM, QMMM, 2- and 3-layer-ONIOM, Crystal-QMMM,
                                                   LR-CPCM, SF, NACMEs, symmetry and pop. for TD-DFT,
                                                   nearIR, NL-DFT gradient (VV10), updates on ESD,
                                                   ML-optimized integration grids
   S Lehtola, MJT Oliveira, MAL Marques          : LibXC Library
   Liviu Ungur et al                             : ANISO software


 Your calculation uses the libint2 library for the computation of 2-el integrals
 For citations please refer to: http://libint.valeyev.net

 Your ORCA version has been built with support for libXC version: 5.1.0
 For citations please refer to: https://tddft.org/programs/libxc/

 This ORCA versions uses:
   CBLAS   interface :  Fast vector & matrix operations
   LAPACKE interface :  Fast linear algebra routines
   SCALAPACK package :  Parallel linear algebra routines
   Shared memory     :  Shared parallel matrices
   BLAS/LAPACK       :  OpenBLAS 0.3.15  USE64BITINT DYNAMIC_ARCH NO_AFFINITY Zen SINGLE_THREADED
        Core in use  :  Zen
   Copyright (c) 2011-2014, The OpenBLAS Project


Your calculation utilizes the SMD solvation module
Please cite in your paper:
A.V. Marenich, C.J. Cramer, D.G. Truhlar J. Phys. Chem. B, 113, (2009), 6378 

================================================================================

cite the ECPs for Ir [Def2-ECP] as follows:
Ce-Yb(ecp-28): M. Dolg, H. Stoll, H.Preuss, J. Chem. Phys., 1989, 90, 1730-1734.
Y-Cd(ecp-28), Hf-Hg(ecp-46): D. Andrae,U. Haeussermann, M. Dolg, H. Stoll, H. Preuss, Theor. Chim. Acta, 1990, 77, 123-141.
In-Sb(ecp-28), Tl-Bi(ecp-46): B. Metz, H. Stoll, M. Dolg, J. Chem. Phys., 2000, 113, 2563-2569.
Te-Xe(ecp-28), Po-Rn(ecp-46): K. A. Peterson, D. Figgen, E. Goll, H. Stoll, M. Dolg, J. Chem. Phys., 2003, 119, 11113-11123.
Rb(ecp-28), Cs(ecp-46): T. Leininger, A. Nicklass, W. Kuechle, H. Stoll, M. Dolg, A. Bergner, Chem. Phys. Lett., 1996, 255, 274-280.
Sr(ecp-28), Ba(ecp-46): M. Kaupp, P. V. Schleyer, H. Stoll and H. Preuss, J. Chem. Phys., 1991, 94, 1360-1366.
La(ecp-46): M. Dolg, H. Stoll, A. Savin, H. Preuss, Theor. Chim. Acta, 1989, 75, 173-194.
Lu(ecp-28): X. Cao, M. Dolg, J. Chem. Phys., 2001, 115, 7348-7355.

ECP parameters for Ir [Def2-ECP] have been obtained from:
TURBOMOLE (7.0.2)

----- Orbital basis set information -----
Your calculation utilizes the basis: def2-SVP
   F. Weigend and R. Ahlrichs, Phys. Chem. Chem. Phys. 7, 3297 (2005).

----- AuxJ basis set information -----
Your calculation utilizes the auxiliary basis: def2/J
   F. Weigend, Phys. Chem. Chem. Phys. 8, 1057 (2006).

----- AuxC basis set information -----
Your calculation utilizes the auxiliary basis: def2-SVP/C
  H-La, Hf-Rn : A. Hellweg, C. Hattig, S. Hofener and W. Klopper, Theor. Chem. Acc. 117, 587 (2007).
        Ce-Lu : J. Chmela and M. E. Harding, Mol. Phys. (2018).

================================================================================
                                        WARNINGS
                       Please study these warnings very carefully!
================================================================================

INFO   : Checking CIS options ...
  ===> : (D) CORRECTION FOUND - SETTING MODE=3
  ===> : JK MODE FOUND - ACTIVATING RI-MP2 CODE
  ===> : MP2 AND CIS FOUND - CHECKING
WARNING: CIS(D) and MP2 runs must have the same orbital window
  ===> : adjusting orbital windows

WARNING: No MP2 level density has been requested!
         To caclulate MP2 level properties use
         %mp2 Density relaxed end
         or
         %mp2 Density unrelaxed end
         Otherwise for double-hybrid DFT only the energy is correct!

WARNING: The frozen-core approximation is turned on by default for 
         the MP2 part of double-hybrid DFT.

WARNING: CIS/ROCIS methods need fully converged wavefunctions
  ===> : Setting SCFConvForced true
         You can overwrite this default with %scf ConvForced false 


INFO   : the flag for use of the SHARK integral package has been found!

================================================================================
                                       INPUT FILE
================================================================================
NAME = Ir_isoCN_5_B2GPPLYP_def2SVP.inp
|  1> %maxcore 12000
|  2> %pal
|  3>  nprocs 8
|  4> end
|  5> ! RI-B2GP-PLYP def2-SVP def2/J def2-SVP/C RIJCOSX CPCM TIGHTSCF
|  6> 
|  7> %TDDFT 
|  8>     DCORR      4
|  9>     NROOTS    40
| 10>     TDA       FALSE
| 11> END
| 12> 
| 13> %CPCM
| 14>     SMD		TRUE
| 15>     SMDsolvent	"Acetonitrile"
| 16> END
| 17> 
| 18> * xyz 1 1
| 19> Ir                 -0.00454100    0.09341600   -0.03280600
| 20> S                   0.23436200   -3.22247800   -3.13821500
| 21> S                   0.11030600   -3.51117400    2.74490000
| 22> N                   1.72557100    0.01622900   -1.28168100
| 23> N                  -1.71173700   -0.29091200    1.19620800
| 24> N                   1.10410800    1.94004500    2.32414600
| 25> N                  -1.31047900    2.18672200   -2.06454100
| 26> C                   2.70862300    0.98967900   -1.36212600
| 27> C                   2.45549800    2.29931100   -0.89872300
| 28> H                   1.47400300    2.54681700   -0.49925200
| 29> C                   3.41629400    3.28795600   -1.00038700
| 30> H                   3.18715600    4.29797600   -0.65263500
| 31> C                   4.66896800    3.00232700   -1.56264100
| 32> H                   5.42979900    3.78153300   -1.63858900
| 33> C                   4.92922200    1.73153700   -2.04018600
| 34> H                   5.89741400    1.52457200   -2.49759500
| 35> C                   3.96702900    0.70353700   -1.96344800
| 36> C                   4.21005500   -0.63299300   -2.45624200
| 37> C                   5.47557700   -1.05516600   -2.91214000
| 38> H                   6.31359400   -0.35772200   -2.90760000
| 39> C                   5.68136100   -2.35131200   -3.34689200
| 40> H                   6.67231800   -2.65774300   -3.68867700
| 41> C                   4.62842200   -3.27799200   -3.32430100
| 42> H                   4.79804000   -4.31179000   -3.63099800
| 43> C                   3.37599700   -2.88730700   -2.89133300
| 44> H                   2.59299000   -3.64151600   -2.82728200
| 45> C                   3.13189300   -1.56159300   -2.46683200
| 46> C                   1.84885200   -1.14915600   -1.94673300
| 47> C                  -0.50526500   -1.39561600   -1.38836400
| 48> C                  -1.69414800   -2.10422700   -1.74543500
| 49> C                  -3.02900700   -1.88869200   -1.33836400
| 50> H                  -3.26486000   -1.06285600   -0.66475100
| 51> C                  -4.04223700   -2.70288100   -1.81769100
| 52> H                  -5.07237900   -2.53225300   -1.49542200
| 53> C                  -3.75980600   -3.74170300   -2.72344700
| 54> H                  -4.57022900   -4.37609200   -3.08974600
| 55> C                  -2.46424700   -3.96393700   -3.17430500
| 56> H                  -2.25171200   -4.75747100   -3.89393500
| 57> C                  -1.44242300   -3.14257700   -2.68770300
| 58> C                   0.60774500   -1.87701300   -2.05710900
| 59> C                  -2.78786800    0.56179100    1.38709600
| 60> C                  -2.66534400    1.94031300    1.10721800
| 61> H                  -1.71121300    2.33649600    0.76543400
| 62> C                  -3.72149800    2.80637600    1.32010000
| 63> H                  -3.59320300    3.87130800    1.11227800
| 64> C                  -4.94126900    2.32613600    1.81890800
| 65> H                  -5.77661300    3.00930400    1.98420300
| 66> C                  -5.07352100    0.98414700    2.12323500
| 67> H                  -6.01563000    0.62336300    2.53799700
| 68> C                  -4.01282200    0.07596100    1.92715800
| 69> C                  -4.12078500   -1.33117500    2.23840500
| 70> C                  -5.34071400   -1.93943100    2.59757500
| 71> H                  -6.24949700   -1.33973800    2.65433900
| 72> C                  -5.41144200   -3.29581400    2.85708100
| 73> H                  -6.36920500   -3.74693000    3.12531100
| 74> C                  -4.26397100   -4.09597100    2.75068500
| 75> H                  -4.32609600   -5.17277300    2.91872900
| 76> C                  -3.05392000   -3.52345700    2.40899200
| 77> H                  -2.19168100   -4.17547800    2.27372400
| 78> C                  -2.94986100   -2.13583100    2.16192200
| 79> C                  -1.71531600   -1.53189400    1.71985700
| 80> C                   0.64770800   -1.48320300    1.14983400
| 81> C                   1.90643700   -2.08463200    1.45983300
| 82> C                   3.20959200   -1.69176500    1.08463800
| 83> H                   3.35197100   -0.80109900    0.47019800
| 84> C                   4.30687300   -2.41504500    1.52295300
| 85> H                   5.31256900   -2.10608500    1.22776500
| 86> C                   4.14057700   -3.53682200    2.35558600
| 87> H                   5.01666400   -4.09570300    2.69251900
| 88> C                   2.87626600   -3.93814300    2.76995100
| 89> H                   2.75218700   -4.79740400    3.43233800
| 90> C                   1.76954900   -3.20950400    2.32326900
| 91> C                  -0.40582400   -2.13621100    1.76495400
| 92> C                   0.70006100    1.32809300    1.40618500
| 93> C                   1.59522800    2.65929000    3.38664600
| 94> C                   2.26678000    1.95956500    4.41199400
| 95> C                   2.75906300    2.71587100    5.47827200
| 96> H                   3.28426600    2.20481900    6.28881500
| 97> C                   2.58759600    4.09912400    5.51546200
| 98> H                   2.98321300    4.67030900    6.35844800
| 99> C                   1.91437600    4.76050700    4.48911300
|100> H                   1.78070300    5.84434300    4.52807600
|101> C                   1.39759200    4.05636600    3.39895100
|102> C                   2.43007200    0.47926300    4.33414100
|103> H                   2.93723400    0.08524800    5.22257000
|104> H                   3.01817300    0.18594400    3.45014700
|105> H                   1.45810300   -0.03110700    4.24104300
|106> C                   0.64821400    4.72416700    2.29583500
|107> H                   0.66955900    5.81527400    2.39993800
|108> H                  -0.40766200    4.40967200    2.28602500
|109> H                   1.05696400    4.46640200    1.30711100
|110> C                  -0.83034600    1.45365400   -1.28196900
|111> C                  -1.88243700    3.09140800   -2.92555600
|112> C                  -1.71330500    4.46617900   -2.65426700
|113> C                  -2.30873000    5.36558300   -3.54172100
|114> H                  -2.19753400    6.43737700   -3.36016400
|115> C                  -3.03168400    4.91175700   -4.64437700
|116> H                  -3.48738800    5.63354500   -5.32615800
|117> C                  -3.17822800    3.54642600   -4.88636800
|118> H                  -3.74606800    3.19931600   -5.75304100
|119> C                  -2.60733900    2.60029200   -4.03165200
|120> C                  -0.91614800    4.91062800   -1.47455500
|121> H                  -1.27382000    4.44708600   -0.54231200
|122> H                  -0.95545000    5.99915700   -1.35106100
|123> H                   0.14213600    4.62239500   -1.57784100
|124> C                  -2.74805200    1.13215900   -4.25040900
|125> H                  -3.30132500    0.91627400   -5.17161300
|126> H                  -3.28105200    0.65139400   -3.41508000
|127> H                  -1.76752800    0.63462700   -4.31651100
|128> *
|129> 
|130>                          ****END OF INPUT****
================================================================================

                       ****************************
                       * Single Point Calculation *
                       ****************************

---------------------------------
CARTESIAN COORDINATES (ANGSTROEM)
---------------------------------
  Ir    -0.004541    0.093416   -0.032806
  S      0.234362   -3.222478   -3.138215
  S      0.110306   -3.511174    2.744900
  N      1.725571    0.016229   -1.281681
  N     -1.711737   -0.290912    1.196208
  N      1.104108    1.940045    2.324146
  N     -1.310479    2.186722   -2.064541
  C      2.708623    0.989679   -1.362126
  C      2.455498    2.299311   -0.898723
  H      1.474003    2.546817   -0.499252
  C      3.416294    3.287956   -1.000387
  H      3.187156    4.297976   -0.652635
  C      4.668968    3.002327   -1.562641
  H      5.429799    3.781533   -1.638589
  C      4.929222    1.731537   -2.040186
  H      5.897414    1.524572   -2.497595
  C      3.967029    0.703537   -1.963448
  C      4.210055   -0.632993   -2.456242
  C      5.475577   -1.055166   -2.912140
  H      6.313594   -0.357722   -2.907600
  C      5.681361   -2.351312   -3.346892
  H      6.672318   -2.657743   -3.688677
  C      4.628422   -3.277992   -3.324301
  H      4.798040   -4.311790   -3.630998
  C      3.375997   -2.887307   -2.891333
  H      2.592990   -3.641516   -2.827282
  C      3.131893   -1.561593   -2.466832
  C      1.848852   -1.149156   -1.946733
  C     -0.505265   -1.395616   -1.388364
  C     -1.694148   -2.104227   -1.745435
  C     -3.029007   -1.888692   -1.338364
  H     -3.264860   -1.062856   -0.664751
  C     -4.042237   -2.702881   -1.817691
  H     -5.072379   -2.532253   -1.495422
  C     -3.759806   -3.741703   -2.723447
  H     -4.570229   -4.376092   -3.089746
  C     -2.464247   -3.963937   -3.174305
  H     -2.251712   -4.757471   -3.893935
  C     -1.442423   -3.142577   -2.687703
  C      0.607745   -1.877013   -2.057109
  C     -2.787868    0.561791    1.387096
  C     -2.665344    1.940313    1.107218
  H     -1.711213    2.336496    0.765434
  C     -3.721498    2.806376    1.320100
  H     -3.593203    3.871308    1.112278
  C     -4.941269    2.326136    1.818908
  H     -5.776613    3.009304    1.984203
  C     -5.073521    0.984147    2.123235
  H     -6.015630    0.623363    2.537997
  C     -4.012822    0.075961    1.927158
  C     -4.120785   -1.331175    2.238405
  C     -5.340714   -1.939431    2.597575
  H     -6.249497   -1.339738    2.654339
  C     -5.411442   -3.295814    2.857081
  H     -6.369205   -3.746930    3.125311
  C     -4.263971   -4.095971    2.750685
  H     -4.326096   -5.172773    2.918729
  C     -3.053920   -3.523457    2.408992
  H     -2.191681   -4.175478    2.273724
  C     -2.949861   -2.135831    2.161922
  C     -1.715316   -1.531894    1.719857
  C      0.647708   -1.483203    1.149834
  C      1.906437   -2.084632    1.459833
  C      3.209592   -1.691765    1.084638
  H      3.351971   -0.801099    0.470198
  C      4.306873   -2.415045    1.522953
  H      5.312569   -2.106085    1.227765
  C      4.140577   -3.536822    2.355586
  H      5.016664   -4.095703    2.692519
  C      2.876266   -3.938143    2.769951
  H      2.752187   -4.797404    3.432338
  C      1.769549   -3.209504    2.323269
  C     -0.405824   -2.136211    1.764954
  C      0.700061    1.328093    1.406185
  C      1.595228    2.659290    3.386646
  C      2.266780    1.959565    4.411994
  C      2.759063    2.715871    5.478272
  H      3.284266    2.204819    6.288815
  C      2.587596    4.099124    5.515462
  H      2.983213    4.670309    6.358448
  C      1.914376    4.760507    4.489113
  H      1.780703    5.844343    4.528076
  C      1.397592    4.056366    3.398951
  C      2.430072    0.479263    4.334141
  H      2.937234    0.085248    5.222570
  H      3.018173    0.185944    3.450147
  H      1.458103   -0.031107    4.241043
  C      0.648214    4.724167    2.295835
  H      0.669559    5.815274    2.399938
  H     -0.407662    4.409672    2.286025
  H      1.056964    4.466402    1.307111
  C     -0.830346    1.453654   -1.281969
  C     -1.882437    3.091408   -2.925556
  C     -1.713305    4.466179   -2.654267
  C     -2.308730    5.365583   -3.541721
  H     -2.197534    6.437377   -3.360164
  C     -3.031684    4.911757   -4.644377
  H     -3.487388    5.633545   -5.326158
  C     -3.178228    3.546426   -4.886368
  H     -3.746068    3.199316   -5.753041
  C     -2.607339    2.600292   -4.031652
  C     -0.916148    4.910628   -1.474555
  H     -1.273820    4.447086   -0.542312
  H     -0.955450    5.999157   -1.351061
  H      0.142136    4.622395   -1.577841
  C     -2.748052    1.132159   -4.250409
  H     -3.301325    0.916274   -5.171613
  H     -3.281052    0.651394   -3.415080
  H     -1.767528    0.634627   -4.316511

----------------------------
CARTESIAN COORDINATES (A.U.)
----------------------------
  NO LB      ZA    FRAG     MASS         X           Y           Z
   0 Ir   17.0000*   0   192.220   -0.008581    0.176531   -0.061994
   1 S    16.0000    0    32.060    0.442880   -6.089601   -5.930367
   2 S    16.0000    0    32.060    0.208448   -6.635157    5.187109
   3 N     7.0000    0    14.007    3.260857    0.030668   -2.422026
   4 N     7.0000    0    14.007   -3.234714   -0.549744    2.260506
   5 N     7.0000    0    14.007    2.086462    3.666154    4.391999
   6 N     7.0000    0    14.007   -2.476446    4.132306   -3.901417
   7 C     6.0000    0    12.011    5.118556    1.870222   -2.574045
   8 C     6.0000    0    12.011    4.640219    4.345068   -1.698340
   9 H     1.0000    0     1.008    2.785462    4.812787   -0.943450
  10 C     6.0000    0    12.011    6.455860    6.213336   -1.890457
  11 H     1.0000    0     1.008    6.022852    8.121998   -1.233301
  12 C     6.0000    0    12.011    8.823071    5.673576   -2.952964
  13 H     1.0000    0     1.008   10.260833    7.146062   -3.096484
  14 C     6.0000    0    12.011    9.314880    3.272131   -3.855393
  15 H     1.0000    0     1.008   11.144497    2.881024   -4.719771
  16 C     6.0000    0    12.011    7.496598    1.329492   -3.710379
  17 C     6.0000    0    12.011    7.955851   -1.196183   -4.641625
  18 C     6.0000    0    12.011   10.347341   -1.993975   -5.503147
  19 H     1.0000    0     1.008   11.930964   -0.675997   -5.494568
  20 C     6.0000    0    12.011   10.736216   -4.443336   -6.324709
  21 H     1.0000    0     1.008   12.608854   -5.022406   -6.970589
  22 C     6.0000    0    12.011    8.746450   -6.194507   -6.282018
  23 H     1.0000    0     1.008    9.066982   -8.148102   -6.861592
  24 C     6.0000    0    12.011    6.379710   -5.456219   -5.463828
  25 H     1.0000    0     1.008    4.900041   -6.881468   -5.342789
  26 C     6.0000    0    12.011    5.918420   -2.950983   -4.661637
  27 C     6.0000    0    12.011    3.493824   -2.171590   -3.678792
  28 C     6.0000    0    12.011   -0.954812   -2.637332   -2.623628
  29 C     6.0000    0    12.011   -3.201476   -3.976413   -3.298394
  30 C     6.0000    0    12.011   -5.723994   -3.569111   -2.529141
  31 H     1.0000    0     1.008   -6.169691   -2.008507   -1.256197
  32 C     6.0000    0    12.011   -7.638721   -5.107705   -3.434938
  33 H     1.0000    0     1.008   -9.585407   -4.785265   -2.825938
  34 C     6.0000    0    12.011   -7.105004   -7.070794   -5.146569
  35 H     1.0000    0     1.008   -8.636481   -8.269615   -5.838774
  36 C     6.0000    0    12.011   -4.656752   -7.490755   -5.998567
  37 H     1.0000    0     1.008   -4.255119   -8.990317   -7.358471
  38 C     6.0000    0    12.011   -2.725784   -5.938610   -5.079023
  39 C     6.0000    0    12.011    1.148472   -3.547041   -3.887373
  40 C     6.0000    0    12.011   -5.268307    1.061631    2.621232
  41 C     6.0000    0    12.011   -5.036770    3.666660    2.092339
  42 H     1.0000    0     1.008   -3.233724    4.415338    1.446461
  43 C     6.0000    0    12.011   -7.032612    5.303282    2.494627
  44 H     1.0000    0     1.008   -6.790170    7.315712    2.101901
  45 C     6.0000    0    12.011   -9.337645    4.395760    3.437238
  46 H     1.0000    0     1.008  -10.916217    5.686760    3.749600
  47 C     6.0000    0    12.011   -9.587565    1.859768    4.012333
  48 H     1.0000    0     1.008  -11.367893    1.177985    4.796119
  49 C     6.0000    0    12.011   -7.583135    0.143545    3.641801
  50 C     6.0000    0    12.011   -7.787155   -2.515556    4.229972
  51 C     6.0000    0    12.011  -10.092487   -3.664993    4.908705
  52 H     1.0000    0     1.008  -11.809838   -2.531738    5.015974
  53 C     6.0000    0    12.011  -10.226143   -6.228186    5.399101
  54 H     1.0000    0     1.008  -12.036053   -7.080672    5.905982
  55 C     6.0000    0    12.011   -8.057737   -7.740263    5.198041
  56 H     1.0000    0     1.008   -8.175137   -9.775124    5.515598
  57 C     6.0000    0    12.011   -5.771072   -6.658369    4.552335
  58 H     1.0000    0     1.008   -4.141677   -7.890510    4.296716
  59 C     6.0000    0    12.011   -5.574429   -4.036136    4.085441
  60 C     6.0000    0    12.011   -3.241477   -2.894860    3.250059
  61 C     6.0000    0    12.011    1.223991   -2.802847    2.172871
  62 C     6.0000    0    12.011    3.602644   -3.939384    2.758685
  63 C     6.0000    0    12.011    6.065250   -3.196973    2.049669
  64 H     1.0000    0     1.008    6.334307   -1.513858    0.888545
  65 C     6.0000    0    12.011    8.138810   -4.563774    2.877964
  66 H     1.0000    0     1.008   10.039300   -3.979924    2.320140
  67 C     6.0000    0    12.011    7.824557   -6.683625    4.451412
  68 H     1.0000    0     1.008    9.480121   -7.739757    5.088124
  69 C     6.0000    0    12.011    5.435355   -7.442012    5.234449
  70 H     1.0000    0     1.008    5.200880   -9.065780    6.486179
  71 C     6.0000    0    12.011    3.343963   -6.065084    4.390342
  72 C     6.0000    0    12.011   -0.766896   -4.036854    3.335280
  73 C     6.0000    0    12.011    1.322924    2.509732    2.657305
  74 C     6.0000    0    12.011    3.014544    5.025330    6.399833
  75 C     6.0000    0    12.011    4.283593    3.703041    8.337460
  76 C     6.0000    0    12.011    5.213873    5.132252   10.352434
  77 H     1.0000    0     1.008    6.206363    4.166504   11.884138
  78 C     6.0000    0    12.011    4.889848    7.746222   10.422713
  79 H     1.0000    0     1.008    5.637456    8.825605   12.015725
  80 C     6.0000    0    12.011    3.617646    8.996054    8.483194
  81 H     1.0000    0     1.008    3.365041   11.044208    8.556824
  82 C     6.0000    0    12.011    2.641066    7.665421    6.423087
  83 C     6.0000    0    12.011    4.592171    0.905676    8.190340
  84 H     1.0000    0     1.008    5.550568    0.161095    9.869227
  85 H     1.0000    0     1.008    5.703520    0.351383    6.519833
  86 H     1.0000    0     1.008    2.755415   -0.058784    8.014410
  87 C     6.0000    0    12.011    1.224947    8.927382    4.338499
  88 H     1.0000    0     1.008    1.265283   10.989275    4.535226
  89 H     1.0000    0     1.008   -0.770370    8.333072    4.319961
  90 H     1.0000    0     1.008    1.997372    8.440277    2.470082
  91 C     6.0000    0    12.011   -1.569127    2.747008   -2.422570
  92 C     6.0000    0    12.011   -3.557290    5.841914   -5.528500
  93 C     6.0000    0    12.011   -3.237677    8.439855   -5.015838
  94 C     6.0000    0    12.011   -4.362867   10.139482   -6.692883
  95 H     1.0000    0     1.008   -4.152737   12.164880   -6.349790
  96 C     6.0000    0    12.011   -5.729052    9.281876   -8.776601
  97 H     1.0000    0     1.008   -6.590208   10.645857  -10.064980
  98 C     6.0000    0    12.011   -6.005981    6.701774   -9.233897
  99 H     1.0000    0     1.008   -7.079043    6.045831  -10.871672
 100 C     6.0000    0    12.011   -4.927157    4.913840   -7.618718
 101 C     6.0000    0    12.011   -1.731269    9.279742   -2.786505
 102 H     1.0000    0     1.008   -2.407171    8.403775   -1.024821
 103 H     1.0000    0     1.008   -1.805539   11.336764   -2.553135
 104 H     1.0000    0     1.008    0.268598    8.735061   -2.981687
 105 C     6.0000    0    12.011   -5.193066    2.139470   -8.032109
 106 H     1.0000    0     1.008   -6.238600    1.731507   -9.772932
 107 H     1.0000    0     1.008   -6.200290    1.230956   -6.453566
 108 H     1.0000    0     1.008   -3.340144    1.199271   -8.157024
* core charge reduced due to ECP

--------------------------------
INTERNAL COORDINATES (ANGSTROEM)
--------------------------------
 Ir     0   0   0     0.000000000000     0.00000000     0.00000000
 S      1   0   0     4.549262876547     0.00000000     0.00000000
 S      1   2   0     4.552132415028    80.67943898     0.00000000
 N      1   2   3     2.135166066407    62.08440598   116.10369798
 N      1   2   3     2.138387618323   107.65298462   303.71881948
 N      1   2   3     3.192861412455   155.12532293    69.08675678
 N      1   2   3     3.196146301361    93.72171181   203.01939660
 C      4   1   2     1.385809343030   125.68709478   170.68155505
 C      8   4   1     1.412073150180   120.34937974   341.70591582
 H      9   8   4     1.088195173166   119.54435933   358.52533583
 C      9   8   4     1.382347083238   120.96941449   181.47561253
 H     11   9   8     1.092509074080   119.47259738   178.75482889
 C     11   9   8     1.402464130177   120.30738390   359.65153717
 H     13  11   9     1.091693134402   120.33247596   180.30565108
 C     13  11   9     1.382276598818   119.59786080     1.29848869
 H     15  13  11     1.090620581765   119.11081257   178.54084025
 C     15  13  11     1.410137613814   121.52956241   359.30046169
 C     17  15  13     1.445067473861   122.74770713   179.88738489
 C     18  17  15     1.409829408410   122.56089894     7.42082033
 H     19  18  17     1.090284933870   119.80475255   359.49944892
 C     19  18  17     1.382516115449   121.06716351   178.40600003
 H     21  19  18     1.092113876771   119.77072755   180.45596921
 C     21  19  18     1.402828112565   120.16718657   359.17745156
 H     23  21  19     1.091591324873   120.29493911   182.34558589
 C     23  21  19     1.381544222555   119.91243656     1.27866952
 H     25  23  21     1.089051747316   118.31864443   183.63508139
 C     25  23  21     1.413260581638   121.06340061     0.00000000
 C      4   1   2     1.347447426021   113.20929526   345.88883444
 C      1   2   3     2.074964653329    16.99347965   271.71481312
 C     29   1   2     1.429360708866   136.02800334   170.37256902
 C     30  29   1     1.412094432093   129.68610712     7.83658094
 H     31  30  29     1.091506394976   119.84474981     1.30147255
 C     31  30  29     1.385385554115   120.12741707   179.74136468
 H     33  31  30     1.092778002574   119.71267449   179.78297595
 C     33  31  30     1.406880360578   120.65551219   359.31072984
 H     35  33  31     1.092432972613   119.71822514   179.84920191
 C     35  33  31     1.389652477924   120.93837543   359.02859120
 H     37  35  33     1.092123927163   120.75778620   181.32722735
 C     37  35  33     1.398405535952   118.32063690     1.05502322
 C     29   1   2     1.384830028102   111.77663182   355.14888340
 C      5   1   2     1.386217358106   126.04059564   238.31596840
 C     41   5   1     1.411972637817   120.39091279   340.21483073
 H     42  41   5     1.088183457559   119.59032297   358.34637874
 C     42  41   5     1.382333222349   120.98773327   181.39363406
 H     44  42  41     1.092579404589   119.44970059   178.87947997
 C     44  42  41     1.402598007593   120.31122156   359.89001484
 H     46  44  42     1.091714500950   120.33220984   180.19267395
 C     46  44  42     1.382403700282   119.59533785     1.32944483
 H     48  46  44     1.090762109344   119.17199465   178.23314450
 C     48  46  44     1.410081688813   121.51092717   359.13157446
 C     50  48  46     1.445185948892   122.74941338   179.87389588
 C     51  50  48     1.409682664814   122.65957549     8.42620084
 H     52  51  50     1.090293715947   119.81884566   359.61466281
 C     52  51  50     1.382794509936   121.01898325   178.41135822
 H     54  52  51     1.092136869868   119.74333332   180.52344451
 C     54  52  51     1.402947265333   120.22385759   359.24825563
 H     56  54  52     1.091604712689   120.29042403   182.29793173
 C     56  54  52     1.381575118857   119.91857797     1.16779222
 H     58  56  54     1.089442476401   118.41722354   183.67836999
 C     58  56  54     1.413286162197   120.97025021   359.96263462
 C      5   1   2     1.346943728879   113.02610856    53.25662629
 C      1   2   3     2.076004238619    79.56132492    17.10038808
 C     62   1   2     1.429060851568   136.04880748    83.73418780
 C     63  62   1     1.411852939133   129.66067302     5.07502070
 H     64  63  62     1.091372629672   119.80959339     0.38218339
 C     64  63  62     1.385380666310   120.11317083   178.75383004
 H     66  64  63     1.092710703416   119.72814370   179.92611302
 C     66  64  63     1.406881555083   120.65757736   359.30999993
 H     68  66  64     1.092428601886   119.71341053   180.02693883
 C     68  66  64     1.389690326291   120.94839846   359.30553643
 H     70  68  66     1.092008059554   120.76184224   181.22675699
 C     70  68  66     1.398306876023   118.31581842     0.87411721
 C     62   1   2     1.383734706325   111.86530544   265.79432008
 C      6   1   2     1.174900687732     4.12344539   109.23035467
 C      6   1   2     1.373833495888   176.22049092   301.55427955
 C     75   6  74     1.411359516719   118.19020975   267.21639799
 C     76  75   6     1.396885854681   116.98850195   179.82815188
 H     77  76  75     1.092699543682   118.84127939   180.00942543
 C     77  76  75     1.394336003336   120.94006195     0.00000000
 H     79  77  76     1.092424144328   119.65337156   180.14147024
 C     79  77  76     1.394290110017   120.68540278     0.25728964
 H     81  79  77     1.092742907181   120.21875068   179.74399926
 C     81  79  77     1.396901369740   120.92990423   359.89624774
 C     76  75   6     1.491314647577   120.41725447   359.87970856
 H     84  76  75     1.096251432159   111.41463927   182.19148203
 H     84  76  75     1.101519048405   111.38753292    61.62525802
 H     84  76  75     1.101757011080   111.56931879   303.07116837
 C     83  81  79     1.491439060753   122.50682361   178.74527434
 H     88  83  81     1.096269824944   111.44624455     6.74697467
 H     88  83  81     1.101761075960   111.11874653   246.65385616
 H     88  83  81     1.100497390229   111.90147433   127.96485889
 C      7   1   2     1.174876727788     2.48787124   182.29212890
 C      7   1   2     1.373659179922   179.29211888   137.80543334
 C     93   7  92     1.411452676283   118.10643463    31.72007438
 C     94  93   7     1.396793860223   116.99890762   180.23562136
 H     95  94  93     1.092735042497   118.85700949   179.95966609
 C     95  94  93     1.394442820172   120.92053372   359.81699942
 H     97  95  94     1.092460243909   119.65187358   180.10366384
 C     97  95  94     1.394332645956   120.69118429     0.05831876
 H     99  97  95     1.092725814937   120.21948393   180.02451955
 C     99  97  95     1.397005095529   120.93326988     0.07697559
 C     94  93   7     1.491547719382   120.41755049     0.92080570
 H    102  94  93     1.100853058495   111.75716599   306.28314566
 H    102  94  93     1.096216584020   111.45864694   185.16810620
 H    102  94  93     1.101685656048   111.17899643    64.93501873
 C    101  99  97     1.490996069447   122.58441309   179.60373821
 H    106 101  99     1.096053901672   111.40129458     2.71911156
 H    106 101  99     1.101362121859   111.35949726   242.21861230
 H    106 101  99     1.101514811523   111.68782730   123.65777957

---------------------------
INTERNAL COORDINATES (A.U.)
---------------------------
 Ir     0   0   0     0.000000000000     0.00000000     0.00000000
 S      1   0   0     8.596860947888     0.00000000     0.00000000
 S      1   2   0     8.602283589748    80.67943898     0.00000000
 N      1   2   3     4.034879115952    62.08440598   116.10369798
 N      1   2   3     4.040966966798   107.65298462   303.71881948
 N      1   2   3     6.033633653105   155.12532293    69.08675678
 N      1   2   3     6.039841193518    93.72171181   203.01939660
 C      4   1   2     2.618800132156   125.68709478   170.68155505
 C      8   4   1     2.668431534903   120.34937974   341.70591582
 H      9   8   4     2.056390857539   119.54435933   358.52533583
 C      9   8   4     2.612257409345   120.96941449   181.47561253
 H     11   9   8     2.064542948836   119.47259738   178.75482889
 C     11   9   8     2.650273118683   120.30738390   359.65153717
 H     13  11   9     2.063001046302   120.33247596   180.30565108
 C     13  11   9     2.612124213095   119.59786080     1.29848869
 H     15  13  11     2.060974215554   119.11081257   178.54084025
 C     15  13  11     2.664773901250   121.52956241   359.30046169
 C     17  15  13     2.730781770635   122.74770713   179.88738489
 C     18  17  15     2.664191477443   122.56089894     7.42082033
 H     19  18  17     2.060339932956   119.80475255   359.49944892
 C     19  18  17     2.612576833931   121.06716351   178.40600003
 H     21  19  18     2.063796134152   119.77072755   180.45596921
 C     21  19  18     2.650960945713   120.16718657   359.17745156
 H     23  21  19     2.062808654173   120.29493911   182.34558589
 C     23  21  19     2.610740222529   119.91243656     1.27866952
 H     25  23  21     2.058009548095   118.31864443   183.63508139
 C     25  23  21     2.670675455163   121.06340061     0.00000000
 C      4   1   2     2.546306615036   113.20929526   345.88883444
 C      1   2   3     3.921114932358    16.99347965   271.71481312
 C     29   1   2     2.701100286345   136.02800334   170.37256902
 C     30  29   1     2.668471751890   129.68610712     7.83658094
 H     31  30  29     2.062648159929   119.84474981     1.30147255
 C     31  30  29     2.617999287168   120.12741707   179.74136468
 H     33  31  30     2.065051150038   119.71267449   179.78297595
 C     33  31  30     2.658618584685   120.65551219   359.31072984
 H     35  33  31     2.064399137903   119.71822514   179.84920191
 C     35  33  31     2.626062604602   120.93837543   359.02859120
 H     37  35  33     2.063815126640   120.75778620   181.32722735
 C     37  35  33     2.642603487108   118.32063690     1.05502322
 C     29   1   2     2.616949495144   111.77663182   355.14888340
 C      5   1   2     2.619571168908   126.04059564   238.31596840
 C     41   5   1     2.668241594065   120.39091279   340.21483073
 H     42  41   5     2.056368718251   119.59032297   358.34637874
 C     42  41   5     2.612231216060   120.98773327   181.39363406
 H     44  42  41     2.064675854237   119.44970059   178.87947997
 C     44  42  41     2.650526110335   120.31122156   359.89001484
 H     46  44  42     2.063041423226   120.33220984   180.19267395
 C     46  44  42     2.612364400053   119.59533785     1.32944483
 H     48  46  44     2.061241663919   119.17199465   178.23314450
 C     48  46  44     2.664668218314   121.51092717   359.13157446
 C     50  48  46     2.731005655996   122.74941338   179.87389588
 C     51  50  48     2.663914172235   122.65957549     8.42620084
 H     52  51  50     2.060356528676   119.81884566   359.61466281
 C     52  51  50     2.613102923269   121.01898325   178.41135822
 H     54  52  51     2.063839584808   119.74333332   180.52344451
 C     54  52  51     2.651186111814   120.22385759   359.24825563
 H     56  54  52     2.062833953480   120.29042403   182.29793173
 C     56  54  52     2.610798608080   119.91857797     1.16779222
 H     58  56  54     2.058747919058   118.41722354   183.67836999
 C     58  56  54     2.670723795413   120.97025021   359.96263462
 C      5   1   2     2.545354765384   113.02610856    53.25662629
 C      1   2   3     3.923079463849    79.56132492    17.10038808
 C     62   1   2     2.700533638171   136.04880748    83.73418780
 C     63  62   1     2.668015396334   129.66067302     5.07502070
 H     64  63  62     2.062395380137   119.80959339     0.38218339
 C     64  63  62     2.617990050556   120.11317083   178.75383004
 H     66  64  63     2.064923973061   119.72814370   179.92611302
 C     66  64  63     2.658620841973   120.65757736   359.30999993
 H     68  66  64     2.064390878427   119.71341053   180.02693883
 C     68  66  64     2.626134127650   120.94839846   359.30553643
 H     70  68  66     2.063596168592   120.76184224   181.22675699
 C     70  68  66     2.642417046863   118.31581842     0.87411721
 C     62   1   2     2.614879636956   111.86530544   265.79432008
 C      6   1   2     2.220240534370     4.12344539   109.23035467
 C      6   1   2     2.596169060837   176.22049092   301.55427955
 C     75   6  74     2.667082963102   118.19020975   267.21639799
 C     76  75   6     2.639731705696   116.98850195   179.82815188
 H     77  76  75     2.064902884219   118.84127939   180.00942543
 C     77  76  75     2.634913184971   120.94006195     0.00000000
 H     79  77  76     2.064382454863   119.65337156   180.14147024
 C     79  77  76     2.634826459166   120.68540278     0.25728964
 H     81  79  77     2.064984829357   120.21875068   179.74399926
 C     81  79  77     2.639761024908   120.92990423   359.89624774
 C     76  75   6     2.818176263425   120.41725447   359.87970856
 H     84  76  75     2.071614980699   111.41463927   182.19148203
 H     84  76  75     2.081569332782   111.38753292    61.62525802
 H     84  76  75     2.082019017070   111.56931879   303.07116837
 C     83  81  79     2.818411370257   122.50682361   178.74527434
 H     88  83  81     2.071649738026   111.44624455     6.74697467
 H     88  83  81     2.082026698579   111.11874653   246.65385616
 H     88  83  81     2.079638678628   111.90147433   127.96485889
 C      7   1   2     2.220195256636     2.48787124   182.29212890
 C      7   1   2     2.595839651400   179.29211888   137.80543334
 C     93   7  92     2.667259009165   118.10643463    31.72007438
 C     94  93   7     2.639557861364   116.99890762   180.23562136
 H     95  94  93     2.064969967258   118.85700949   179.95966609
 C     95  94  93     2.635115039537   120.92053372   359.81699942
 H     97  95  94     2.064450673184   119.65187358   180.10366384
 C     97  95  94     2.634906840442   120.69118429     0.05831876
 H     99  97  95     2.064952529696   120.21948393   180.02451955
 C     99  97  95     2.639957038242   120.93326988     0.07697559
 C     94  93   7     2.818616705307   120.41755049     0.92080570
 H    102  94  93     2.080310794244   111.75716599   306.28314566
 H    102  94  93     2.071549127261   111.45864694   185.16810620
 H    102  94  93     2.081884175599   111.17899643    64.93501873
 C    101  99  97     2.817574238008   122.58441309   179.60373821
 H    106 101  99     2.071241702176   111.40129458     2.71911156
 H    106 101  99     2.081272784588   111.35949726   242.21861230
 H    106 101  99     2.081561326236   111.68782730   123.65777957

---------------------
BASIS SET INFORMATION
---------------------
There are 5 groups of distinct atoms

 Group   1 Type Ir  : 7s6p5d1f contracted to 6s3p2d1f pattern {211111/411/41/1}
 Group   2 Type S   : 10s7p1d contracted to 4s3p1d pattern {5311/511/1}
 Group   3 Type N   : 7s4p1d contracted to 3s2p1d pattern {511/31/1}
 Group   4 Type C   : 7s4p1d contracted to 3s2p1d pattern {511/31/1}
 Group   5 Type H   : 4s1p contracted to 2s1p pattern {31/1}

Atom   0Ir   basis set group =>   1
Atom   1S    basis set group =>   2
Atom   2S    basis set group =>   2
Atom   3N    basis set group =>   3
Atom   4N    basis set group =>   3
Atom   5N    basis set group =>   3
Atom   6N    basis set group =>   3
Atom   7C    basis set group =>   4
Atom   8C    basis set group =>   4
Atom   9H    basis set group =>   5
Atom  10C    basis set group =>   4
Atom  11H    basis set group =>   5
Atom  12C    basis set group =>   4
Atom  13H    basis set group =>   5
Atom  14C    basis set group =>   4
Atom  15H    basis set group =>   5
Atom  16C    basis set group =>   4
Atom  17C    basis set group =>   4
Atom  18C    basis set group =>   4
Atom  19H    basis set group =>   5
Atom  20C    basis set group =>   4
Atom  21H    basis set group =>   5
Atom  22C    basis set group =>   4
Atom  23H    basis set group =>   5
Atom  24C    basis set group =>   4
Atom  25H    basis set group =>   5
Atom  26C    basis set group =>   4
Atom  27C    basis set group =>   4
Atom  28C    basis set group =>   4
Atom  29C    basis set group =>   4
Atom  30C    basis set group =>   4
Atom  31H    basis set group =>   5
Atom  32C    basis set group =>   4
Atom  33H    basis set group =>   5
Atom  34C    basis set group =>   4
Atom  35H    basis set group =>   5
Atom  36C    basis set group =>   4
Atom  37H    basis set group =>   5
Atom  38C    basis set group =>   4
Atom  39C    basis set group =>   4
Atom  40C    basis set group =>   4
Atom  41C    basis set group =>   4
Atom  42H    basis set group =>   5
Atom  43C    basis set group =>   4
Atom  44H    basis set group =>   5
Atom  45C    basis set group =>   4
Atom  46H    basis set group =>   5
Atom  47C    basis set group =>   4
Atom  48H    basis set group =>   5
Atom  49C    basis set group =>   4
Atom  50C    basis set group =>   4
Atom  51C    basis set group =>   4
Atom  52H    basis set group =>   5
Atom  53C    basis set group =>   4
Atom  54H    basis set group =>   5
Atom  55C    basis set group =>   4
Atom  56H    basis set group =>   5
Atom  57C    basis set group =>   4
Atom  58H    basis set group =>   5
Atom  59C    basis set group =>   4
Atom  60C    basis set group =>   4
Atom  61C    basis set group =>   4
Atom  62C    basis set group =>   4
Atom  63C    basis set group =>   4
Atom  64H    basis set group =>   5
Atom  65C    basis set group =>   4
Atom  66H    basis set group =>   5
Atom  67C    basis set group =>   4
Atom  68H    basis set group =>   5
Atom  69C    basis set group =>   4
Atom  70H    basis set group =>   5
Atom  71C    basis set group =>   4
Atom  72C    basis set group =>   4
Atom  73C    basis set group =>   4
Atom  74C    basis set group =>   4
Atom  75C    basis set group =>   4
Atom  76C    basis set group =>   4
Atom  77H    basis set group =>   5
Atom  78C    basis set group =>   4
Atom  79H    basis set group =>   5
Atom  80C    basis set group =>   4
Atom  81H    basis set group =>   5
Atom  82C    basis set group =>   4
Atom  83C    basis set group =>   4
Atom  84H    basis set group =>   5
Atom  85H    basis set group =>   5
Atom  86H    basis set group =>   5
Atom  87C    basis set group =>   4
Atom  88H    basis set group =>   5
Atom  89H    basis set group =>   5
Atom  90H    basis set group =>   5
Atom  91C    basis set group =>   4
Atom  92C    basis set group =>   4
Atom  93C    basis set group =>   4
Atom  94C    basis set group =>   4
Atom  95H    basis set group =>   5
Atom  96C    basis set group =>   4
Atom  97H    basis set group =>   5
Atom  98C    basis set group =>   4
Atom  99H    basis set group =>   5
Atom 100C    basis set group =>   4
Atom 101C    basis set group =>   4
Atom 102H    basis set group =>   5
Atom 103H    basis set group =>   5
Atom 104H    basis set group =>   5
Atom 105C    basis set group =>   4
Atom 106H    basis set group =>   5
Atom 107H    basis set group =>   5
Atom 108H    basis set group =>   5
---------------------------------
AUXILIARY/J BASIS SET INFORMATION
---------------------------------
There are 5 groups of distinct atoms

 Group   1 Type Ir  : 11s5p5d3f3g contracted to 8s5p5d2f3g pattern {41111111/11111/11111/21/111}
 Group   2 Type S   : 14s5p5d2f1g contracted to 8s4p3d1f1g pattern {71111111/2111/311/2/1}
 Group   3 Type N   : 12s5p4d2f1g contracted to 6s4p3d1f1g pattern {711111/2111/211/2/1}
 Group   4 Type C   : 12s5p4d2f1g contracted to 6s4p3d1f1g pattern {711111/2111/211/2/1}
 Group   5 Type H   : 5s2p1d contracted to 3s1p1d pattern {311/2/1}

Atom   0Ir   basis set group =>   1
Atom   1S    basis set group =>   2
Atom   2S    basis set group =>   2
Atom   3N    basis set group =>   3
Atom   4N    basis set group =>   3
Atom   5N    basis set group =>   3
Atom   6N    basis set group =>   3
Atom   7C    basis set group =>   4
Atom   8C    basis set group =>   4
Atom   9H    basis set group =>   5
Atom  10C    basis set group =>   4
Atom  11H    basis set group =>   5
Atom  12C    basis set group =>   4
Atom  13H    basis set group =>   5
Atom  14C    basis set group =>   4
Atom  15H    basis set group =>   5
Atom  16C    basis set group =>   4
Atom  17C    basis set group =>   4
Atom  18C    basis set group =>   4
Atom  19H    basis set group =>   5
Atom  20C    basis set group =>   4
Atom  21H    basis set group =>   5
Atom  22C    basis set group =>   4
Atom  23H    basis set group =>   5
Atom  24C    basis set group =>   4
Atom  25H    basis set group =>   5
Atom  26C    basis set group =>   4
Atom  27C    basis set group =>   4
Atom  28C    basis set group =>   4
Atom  29C    basis set group =>   4
Atom  30C    basis set group =>   4
Atom  31H    basis set group =>   5
Atom  32C    basis set group =>   4
Atom  33H    basis set group =>   5
Atom  34C    basis set group =>   4
Atom  35H    basis set group =>   5
Atom  36C    basis set group =>   4
Atom  37H    basis set group =>   5
Atom  38C    basis set group =>   4
Atom  39C    basis set group =>   4
Atom  40C    basis set group =>   4
Atom  41C    basis set group =>   4
Atom  42H    basis set group =>   5
Atom  43C    basis set group =>   4
Atom  44H    basis set group =>   5
Atom  45C    basis set group =>   4
Atom  46H    basis set group =>   5
Atom  47C    basis set group =>   4
Atom  48H    basis set group =>   5
Atom  49C    basis set group =>   4
Atom  50C    basis set group =>   4
Atom  51C    basis set group =>   4
Atom  52H    basis set group =>   5
Atom  53C    basis set group =>   4
Atom  54H    basis set group =>   5
Atom  55C    basis set group =>   4
Atom  56H    basis set group =>   5
Atom  57C    basis set group =>   4
Atom  58H    basis set group =>   5
Atom  59C    basis set group =>   4
Atom  60C    basis set group =>   4
Atom  61C    basis set group =>   4
Atom  62C    basis set group =>   4
Atom  63C    basis set group =>   4
Atom  64H    basis set group =>   5
Atom  65C    basis set group =>   4
Atom  66H    basis set group =>   5
Atom  67C    basis set group =>   4
Atom  68H    basis set group =>   5
Atom  69C    basis set group =>   4
Atom  70H    basis set group =>   5
Atom  71C    basis set group =>   4
Atom  72C    basis set group =>   4
Atom  73C    basis set group =>   4
Atom  74C    basis set group =>   4
Atom  75C    basis set group =>   4
Atom  76C    basis set group =>   4
Atom  77H    basis set group =>   5
Atom  78C    basis set group =>   4
Atom  79H    basis set group =>   5
Atom  80C    basis set group =>   4
Atom  81H    basis set group =>   5
Atom  82C    basis set group =>   4
Atom  83C    basis set group =>   4
Atom  84H    basis set group =>   5
Atom  85H    basis set group =>   5
Atom  86H    basis set group =>   5
Atom  87C    basis set group =>   4
Atom  88H    basis set group =>   5
Atom  89H    basis set group =>   5
Atom  90H    basis set group =>   5
Atom  91C    basis set group =>   4
Atom  92C    basis set group =>   4
Atom  93C    basis set group =>   4
Atom  94C    basis set group =>   4
Atom  95H    basis set group =>   5
Atom  96C    basis set group =>   4
Atom  97H    basis set group =>   5
Atom  98C    basis set group =>   4
Atom  99H    basis set group =>   5
Atom 100C    basis set group =>   4
Atom 101C    basis set group =>   4
Atom 102H    basis set group =>   5
Atom 103H    basis set group =>   5
Atom 104H    basis set group =>   5
Atom 105C    basis set group =>   4
Atom 106H    basis set group =>   5
Atom 107H    basis set group =>   5
Atom 108H    basis set group =>   5
---------------------------------
AUXILIARY/C BASIS SET INFORMATION
---------------------------------
There are 5 groups of distinct atoms

 Group   1 Type Ir  : 8s8p7d5f3g1h contracted to 8s8p7d5f3g1h pattern {11111111/11111111/1111111/11111/111/1}
 Group   2 Type S   : 10s7p7d3f contracted to 8s5p5d2f pattern {31111111/31111/31111/12}
 Group   3 Type N   : 8s6p5d3f contracted to 6s5p4d1f pattern {311111/21111/2111/3}
 Group   4 Type C   : 8s6p5d3f contracted to 6s5p4d1f pattern {311111/21111/2111/3}
 Group   5 Type H   : 4s3p2d contracted to 3s2p1d pattern {211/21/2}

Atom   0Ir   basis set group =>   1
Atom   1S    basis set group =>   2
Atom   2S    basis set group =>   2
Atom   3N    basis set group =>   3
Atom   4N    basis set group =>   3
Atom   5N    basis set group =>   3
Atom   6N    basis set group =>   3
Atom   7C    basis set group =>   4
Atom   8C    basis set group =>   4
Atom   9H    basis set group =>   5
Atom  10C    basis set group =>   4
Atom  11H    basis set group =>   5
Atom  12C    basis set group =>   4
Atom  13H    basis set group =>   5
Atom  14C    basis set group =>   4
Atom  15H    basis set group =>   5
Atom  16C    basis set group =>   4
Atom  17C    basis set group =>   4
Atom  18C    basis set group =>   4
Atom  19H    basis set group =>   5
Atom  20C    basis set group =>   4
Atom  21H    basis set group =>   5
Atom  22C    basis set group =>   4
Atom  23H    basis set group =>   5
Atom  24C    basis set group =>   4
Atom  25H    basis set group =>   5
Atom  26C    basis set group =>   4
Atom  27C    basis set group =>   4
Atom  28C    basis set group =>   4
Atom  29C    basis set group =>   4
Atom  30C    basis set group =>   4
Atom  31H    basis set group =>   5
Atom  32C    basis set group =>   4
Atom  33H    basis set group =>   5
Atom  34C    basis set group =>   4
Atom  35H    basis set group =>   5
Atom  36C    basis set group =>   4
Atom  37H    basis set group =>   5
Atom  38C    basis set group =>   4
Atom  39C    basis set group =>   4
Atom  40C    basis set group =>   4
Atom  41C    basis set group =>   4
Atom  42H    basis set group =>   5
Atom  43C    basis set group =>   4
Atom  44H    basis set group =>   5
Atom  45C    basis set group =>   4
Atom  46H    basis set group =>   5
Atom  47C    basis set group =>   4
Atom  48H    basis set group =>   5
Atom  49C    basis set group =>   4
Atom  50C    basis set group =>   4
Atom  51C    basis set group =>   4
Atom  52H    basis set group =>   5
Atom  53C    basis set group =>   4
Atom  54H    basis set group =>   5
Atom  55C    basis set group =>   4
Atom  56H    basis set group =>   5
Atom  57C    basis set group =>   4
Atom  58H    basis set group =>   5
Atom  59C    basis set group =>   4
Atom  60C    basis set group =>   4
Atom  61C    basis set group =>   4
Atom  62C    basis set group =>   4
Atom  63C    basis set group =>   4
Atom  64H    basis set group =>   5
Atom  65C    basis set group =>   4
Atom  66H    basis set group =>   5
Atom  67C    basis set group =>   4
Atom  68H    basis set group =>   5
Atom  69C    basis set group =>   4
Atom  70H    basis set group =>   5
Atom  71C    basis set group =>   4
Atom  72C    basis set group =>   4
Atom  73C    basis set group =>   4
Atom  74C    basis set group =>   4
Atom  75C    basis set group =>   4
Atom  76C    basis set group =>   4
Atom  77H    basis set group =>   5
Atom  78C    basis set group =>   4
Atom  79H    basis set group =>   5
Atom  80C    basis set group =>   4
Atom  81H    basis set group =>   5
Atom  82C    basis set group =>   4
Atom  83C    basis set group =>   4
Atom  84H    basis set group =>   5
Atom  85H    basis set group =>   5
Atom  86H    basis set group =>   5
Atom  87C    basis set group =>   4
Atom  88H    basis set group =>   5
Atom  89H    basis set group =>   5
Atom  90H    basis set group =>   5
Atom  91C    basis set group =>   4
Atom  92C    basis set group =>   4
Atom  93C    basis set group =>   4
Atom  94C    basis set group =>   4
Atom  95H    basis set group =>   5
Atom  96C    basis set group =>   4
Atom  97H    basis set group =>   5
Atom  98C    basis set group =>   4
Atom  99H    basis set group =>   5
Atom 100C    basis set group =>   4
Atom 101C    basis set group =>   4
Atom 102H    basis set group =>   5
Atom 103H    basis set group =>   5
Atom 104H    basis set group =>   5
Atom 105C    basis set group =>   4
Atom 106H    basis set group =>   5
Atom 107H    basis set group =>   5
Atom 108H    basis set group =>   5
-------------------------
ECP PARAMETER INFORMATION
-------------------------

 Group 1, Type Ir ECP Def2-ECP (replacing 60 core electrons, lmax=3)

Atom   0Ir   ECP group =>   1



           ************************************************************
           *        Program running with 8 parallel MPI-processes     *
           *              working on a common directory               *
           ************************************************************
------------------------------------------------------------------------------
                           ORCA GTO INTEGRAL CALCULATION
                           -- RI-GTO INTEGRALS CHOSEN --
------------------------------------------------------------------------------
------------------------------------------------------------------------------
                   ___                                                        
                  /   \      - P O W E R E D   B Y -                         
                 /     \                                                     
                 |  |  |   _    _      __       _____    __    __             
                 |  |  |  | |  | |    /  \     |  _  \  |  |  /  |          
                  \  \/   | |  | |   /    \    | | | |  |  | /  /          
                 / \  \   | |__| |  /  /\  \   | |_| |  |  |/  /          
                |  |  |   |  __  | /  /__\  \  |    /   |      \           
                |  |  |   | |  | | |   __   |  |    \   |  |\   \          
                \     /   | |  | | |  |  |  |  | |\  \  |  | \   \       
                 \___/    |_|  |_| |__|  |__|  |_| \__\ |__|  \__/        
                                                                              
                      - O R C A' S   B I G   F R I E N D -                    
                                      &                                       
                       - I N T E G R A L  F E E D E R -                       
                                                                              
 v1 FN, 2020, v2 2021                                                         
------------------------------------------------------------------------------


Reading SHARK input file Ir_isoCN_5_B2GPPLYP_def2SVP.SHARKINP.tmp ... ok
----------------------
SHARK INTEGRAL PACKAGE
----------------------

Number of atoms                             ...    109
Number of basis functions                   ...   1174
Number of shells                            ...    538
Maximum angular momentum                    ...      3
Integral batch strategy                     ... SHARK/LIBINT Hybrid
RI-J (if used) integral strategy            ... SPLIT-RIJ (Revised 2003 algorithm where possible)
Printlevel                                  ...      1
Contraction scheme used                     ... SEGMENTED contraction
Coulomb Range Separation                    ... NOT USED
Exchange Range Separation                   ... NOT USED
Finite Nucleus Model                        ... NOT USED
Auxiliary Coulomb fitting basis             ... AVAILABLE
   # of basis functions in Aux-J            ...   3789
   # of shells in Aux-J                     ...   1227
   Maximum angular momentum in Aux-J        ...      4
Auxiliary J/K fitting basis                 ... NOT available
Auxiliary Correlation fitting basis         ... AVAILABLE
   # of basis functions in Aux-C            ...   3924
   # of shells in Aux-C                     ...   1348
   Maximum angular momentum in Aux-C        ...      5
Auxiliary 'external' fitting basis          ... NOT available
Integral threshold                          ...     2.500000e-11
Primitive cut-off                           ...     2.500000e-12
Primitive pair pre-selection threshold      ...     2.500000e-12

Calculating pre-screening integrals         ... done (  0.1 sec) Dimension = 538
Organizing shell pair data                  ... done (  0.3 sec)
Shell pair information
Total number of shell pairs                 ...    144991
Shell pairs after pre-screening             ...     73786
Total number of primitive shell pairs       ...    535078
Primitive shell pairs kept                  ...    150796
          la=0 lb=0:  22070 shell pairs
          la=1 lb=0:  27783 shell pairs
          la=1 lb=1:   8889 shell pairs
          la=2 lb=0:   8515 shell pairs
          la=2 lb=1:   5438 shell pairs
          la=2 lb=2:    717 shell pairs
          la=3 lb=0:    202 shell pairs
          la=3 lb=1:    129 shell pairs
          la=3 lb=2:     42 shell pairs
          la=3 lb=3:      1 shell pairs

Calculating one electron integrals          ... done (  0.1 sec)
Calculating ECP integrals                   ... done (  1.9 sec)
Calculating RI/J V-Matrix + Cholesky decomp.... done (  1.0 sec)
Calculating RI/C V-Matrix + Cholesky decomp.... done (  1.0 sec)
Calculating Nuclear repulsion               ... done (  0.0 sec) ENN=  11350.435216603333 Eh

SHARK setup successfully completed in   4.8 seconds

Maximum memory used throughout the entire GTOINT-calculation: 137.3 MB


           ************************************************************
           *        Program running with 8 parallel MPI-processes     *
           *              working on a common directory               *
           ************************************************************
-------------------------------------------------------------------------------
                                 ORCA SCF
-------------------------------------------------------------------------------

------------
SCF SETTINGS
------------
Hamiltonian:
 Density Functional     Method          .... DFT(GTOs)
 Exchange Functional    Exchange        .... B88
   X-Alpha parameter    XAlpha          ....  0.666667
   Becke's b parameter  XBeta           ....  0.004200
 Correlation Functional Correlation     .... LYP
 LDA part of GGA corr.  LDAOpt          .... VWN-3
 Gradients option       PostSCFGGA      .... off
 Hybrid DFT is turned on
   Fraction HF Exchange ScalHFX         ....  0.650000
   Scaling of DF-GGA-X  ScalDFX         ....  0.350000
   Scaling of DF-GGA-C  ScalDFC         ....  0.640000
   Scaling of DF-LDA-C  ScalLDAC        ....  0.640000
   Perturbative correction              ....  0.360000
   Density functional embedding theory  .... OFF
 RI-approximation to the Coulomb term is turned on
   Number of AuxJ basis functions       .... 3789
   RIJ-COSX (HFX calculated with COS-X)).... on


General Settings:
 Integral files         IntName         .... Ir_isoCN_5_B2GPPLYP_def2SVP
 Hartree-Fock type      HFTyp           .... RHF
 Total Charge           Charge          ....    1
 Multiplicity           Mult            ....    1
 Number of Electrons    NEL             ....  478
 Basis Dimension        Dim             .... 1174
 Nuclear Repulsion      ENuc            ....  11350.4352166033 Eh

Convergence Acceleration:
 DIIS                   CNVDIIS         .... on
   Start iteration      DIISMaxIt       ....    12
   Startup error        DIISStart       ....  0.200000
   # of expansion vecs  DIISMaxEq       ....     5
   Bias factor          DIISBfac        ....   1.050
   Max. coefficient     DIISMaxC        ....  10.000
 Trust-Rad. Augm. Hess. CNVTRAH         .... auto
   Auto Start mean grad. ratio tolernc. ....  1.125000
   Auto Start start iteration           ....    20
   Auto Start num. interpolation iter.  ....    10
   Max. Number of Micro iterations      ....    16
   Max. Number of Macro iterations      .... Maxiter - #DIIS iter
   Number of Davidson start vectors     ....     2
   Converg. threshold I  (grad. norm)   ....   1.000e-05
   Converg. threshold II (energy diff.) ....   1.000e-08
   Grad. Scal. Fac. for Micro threshold ....   0.100
   Minimum threshold for Micro iter.    ....   0.010
   NR start threshold (gradient norm)   ....   0.001
   Initial trust radius                 ....   0.400
   Minimum AH scaling param. (alpha)    ....   1.000
   Maximum AH scaling param. (alpha)    .... 1000.000
   Orbital update algorithm             .... Taylor
   White noise on init. David. guess    .... on
   Maximum white noise                  ....   0.010
   Quad. conv. algorithm                .... NR
 SOSCF                  CNVSOSCF        .... off
 Level Shifting         CNVShift        .... on
   Level shift para.    LevelShift      ....    0.2500
   Turn off err/grad.   ShiftErr        ....    0.0010
 Zerner damping         CNVZerner       .... off
 Static damping         CNVDamp         .... on
   Fraction old density DampFac         ....    0.7000
   Max. Damping (<1)    DampMax         ....    0.9800
   Min. Damping (>=0)   DampMin         ....    0.0000
   Turn off err/grad.   DampErr         ....    0.1000
 Fernandez-Rico         CNVRico         .... off

SCF Procedure:
 Maximum # iterations   MaxIter         ....   125
 SCF integral mode      SCFMode         .... Direct
   Integral package                     .... SHARK and LIBINT hybrid scheme
 Reset frequency        DirectResetFreq ....    20
 Integral Threshold     Thresh          ....  2.500e-11 Eh
 Primitive CutOff       TCut            ....  2.500e-12 Eh

Convergence Tolerance:
 Convergence Check Mode ConvCheckMode   .... Total+1el-Energy
 Convergence forced     ConvForced      .... 1
 Energy Change          TolE            ....  1.000e-08 Eh
 1-El. energy change                    ....  1.000e-05 Eh
 DIIS Error             TolErr          ....  5.000e-07


Diagonalization of the overlap matrix:
Smallest eigenvalue                        ... 2.044e-04
Time for diagonalization                   ...    0.202 sec
Threshold for overlap eigenvalues          ... 1.000e-08
Number of eigenvalues below threshold      ... 0
Time for construction of square roots      ...    0.164 sec
Total time needed                          ...    0.371 sec

Time for model grid setup =    1.364 sec

------------------------------
INITIAL GUESS: MODEL POTENTIAL
------------------------------
Loading Hartree-Fock densities                     ... done
  calling /project/ligandum/orca_504_openmpi411/orca Ir_isoCN_5_B2GPPLYP_def2SVP_atom77.inp > Ir_isoCN_5_B2GPPLYP_def2SVP_atom77.out in order to generate an atomic fitting density for atom 0 (Ir with ECP) on-the-fly... 
    atom 0 (Ir), assumed electronic state with S=4: 1s2 2s2 2p6 3s2 3p6 4s2 3d10 4p6 5s2 4d10 5p6 6s2 4f14 5d7           ... done
Calculating cut-offs                               ... done
Initializing the effective Hamiltonian             ... done
Setting up the integral package (SHARK)            ... done
Starting the Coulomb interaction                   ... done (   1.5 sec)
Reading the grid                                   ... done
Mapping shells                                     ... done
Starting the XC term evaluation                    ... done (   0.4 sec)
  promolecular density results
     # of electrons  =    538.983611488
     EX              =   -748.014293982
     EC              =     -2.571549260
     EX+EC           =   -750.585843242
Transforming the Hamiltonian                       ... done (   0.1 sec)
Diagonalizing the Hamiltonian                      ... done (   0.2 sec)
Back transforming the eigenvectors                 ... done (   0.0 sec)
Now organizing SCF variables                       ... done
                      ------------------
                      INITIAL GUESS DONE (   4.7 sec)
                      ------------------
-------------------
DFT GRID GENERATION
-------------------

General Integration Accuracy     IntAcc      ... 4.388
Radial Grid Type                 RadialGrid  ... OptM3 with GC (2021)
Angular Grid (max. ang.)         AngularGrid ... 4 (Lebedev-302)
Angular grid pruning method      GridPruning ... 4 (adaptive)
Weight generation scheme         WeightScheme... Becke
Basis function cutoff            BFCut       ... 1.0000e-11
Integration weight cutoff        WCut        ... 1.0000e-14
Angular grids for H and He will be reduced by one unit
Partially contracted basis set               ... off
Rotationally invariant grid construction     ... off

Total number of grid points                  ...   534013
Total number of batches                      ...     8403
Average number of points per batch           ...       63
Average number of grid points per atom       ...     4899
Time for grid setup =    5.050 sec

--------------------
COSX GRID GENERATION
--------------------

GRIDX 1
-------
General Integration Accuracy     IntAcc      ... 3.816
Radial Grid Type                 RadialGrid  ... OptM3 with GC (2021)
Angular Grid (max. ang.)         AngularGrid ... 1 (Lebedev-50)
Angular grid pruning method      GridPruning ... 4 (adaptive)
Weight generation scheme         WeightScheme... Becke
Basis function cutoff            BFCut       ... 1.0000e-11
Integration weight cutoff        WCut        ... 1.0000e-14
Angular grids for H and He will be reduced by one unit
Partially contracted basis set               ... on
Rotationally invariant grid construction     ... off

Total number of grid points                  ...    67080
Total number of batches                      ...     1091
Average number of points per batch           ...       61
Average number of grid points per atom       ...      615
UseSFitting                                  ... on

GRIDX 2
-------
General Integration Accuracy     IntAcc      ... 4.020
Radial Grid Type                 RadialGrid  ... OptM3 with GC (2021)
Angular Grid (max. ang.)         AngularGrid ... 2 (Lebedev-110)
Angular grid pruning method      GridPruning ... 4 (adaptive)
Weight generation scheme         WeightScheme... Becke
Basis function cutoff            BFCut       ... 1.0000e-11
Integration weight cutoff        WCut        ... 1.0000e-14
Angular grids for H and He will be reduced by one unit
Partially contracted basis set               ... on
Rotationally invariant grid construction     ... off

Total number of grid points                  ...   145409
Total number of batches                      ...     2328
Average number of points per batch           ...       62
Average number of grid points per atom       ...     1334
UseSFitting                                  ... on

GRIDX 3
-------
General Integration Accuracy     IntAcc      ... 4.338
Radial Grid Type                 RadialGrid  ... OptM3 with GC (2021)
Angular Grid (max. ang.)         AngularGrid ... 3 (Lebedev-194)
Angular grid pruning method      GridPruning ... 4 (adaptive)
Weight generation scheme         WeightScheme... Becke
Basis function cutoff            BFCut       ... 1.0000e-11
Integration weight cutoff        WCut        ... 1.0000e-14
Angular grids for H and He will be reduced by one unit
Partially contracted basis set               ... on
Rotationally invariant grid construction     ... off

Total number of grid points                  ...   315706
Total number of batches                      ...     4990
Average number of points per batch           ...       63
Average number of grid points per atom       ...     2896
UseSFitting                                  ... on

Time for X-Grid setup             =    5.735 sec


--------------------
CPCM SOLVATION MODEL
--------------------
CPCM parameters:
  Epsilon                                         ...      35.6880
  Refrac                                          ...       1.3442
  Rsolv                                           ...       1.3000
  Surface type                                    ... GAUSSIAN VDW
  Epsilon function type                           ...         CPCM
Solvent:                                     ... ACETONITRILE
SMD-CDS solvent descriptors:
  Soln                                       ...    1.3442
  Soln25                                     ...    1.3416
  Sola                                       ...    0.0700
  Solb                                       ...    0.3200
  Solg                                       ...   41.2500
  Solc                                       ...    0.0000
  Solh                                       ...    0.0000
Radii:
 Radius for Ir used is    3.8172 Bohr (=   2.0200 Ang.)
 Radius for S  used is    4.7054 Bohr (=   2.4900 Ang.)
 Radius for N  used is    3.5716 Bohr (=   1.8900 Ang.)
 Radius for C  used is    3.4960 Bohr (=   1.8500 Ang.)
 Radius for H  used is    2.2677 Bohr (=   1.2000 Ang.)
Calculating surface                               ...        done! (  0.0s)
GEPOL surface points                              ...         5956
GEPOL Volume                                      ...    6266.3787
GEPOL Surface-area                                ...    3104.9876
Calculating surface distance matrix               ...        done! (  0.2s)
Performing Cholesky decomposition & store         ...        done! (  1.7s)
Overall time for CPCM initialization              ...                 1.9s
--------------
SCF ITERATIONS
--------------
ITER       Energy         Delta-E        Max-DP      RMS-DP      [F,P]     Damp
               ***  Starting incremental Fock matrix formation  ***
  0  -3419.9753467464   0.000000000000 0.19520723  0.00144107  0.3720027 0.7000
  1  -3420.5763162582  -0.600969511824 0.17762651  0.00107669  0.2715834 0.7000
                               ***Turning on DIIS***
  2  -3420.9048496144  -0.328533356270 0.14681044  0.00073261  0.1957334 0.7000
  3  -3421.1073155281  -0.202465913677 0.11538666  0.00050132  0.1387223 0.7000
  4  -3421.2460875424  -0.138772014287 0.25498264  0.00119141  0.0963782 0.0000
  5  -3421.5695263855  -0.323438843075 0.01670938  0.00008104  0.0079859 0.0000
  6  -3421.5712019932  -0.001675607752 0.00700395  0.00004327  0.0036393 0.0000
  7  -3421.5718083765  -0.000606383301 0.00673798  0.00002618  0.0028046 0.0000
  8  -3421.5720527176  -0.000244341064 0.00276995  0.00001644  0.0010775 0.0000
  9  -3421.5721463432  -0.000093625628 0.00330571  0.00001709  0.0007411 0.0000
               *** Restarting incremental Fock matrix formation ***
                                   *** Resetting DIIS ***
 10  -3421.5722124347  -0.000066091423 0.00172207  0.00002352  0.0004736 0.0000
 11  -3421.5722185122  -0.000006077594 0.00100611  0.00000415  0.0007350 0.0000
 12  -3421.5722224072  -0.000003894938 0.00037532  0.00000311  0.0002681 0.0000
 13  -3421.5722237081  -0.000001300929 0.00009914  0.00000117  0.0000675 0.0000
 14  -3421.5722239598  -0.000000251728 0.00006762  0.00000076  0.0000329 0.0000
 15  -3421.5722240391  -0.000000079222 0.00002693  0.00000027  0.0000183 0.0000
 16  -3421.5722240266   0.000000012427 0.00001253  0.00000012  0.0000081 0.0000
 17  -3421.5722239939   0.000000032734 0.00000704  0.00000005  0.0000030 0.0000
 18  -3421.5722239563   0.000000037593 0.00000418  0.00000002  0.0000027 0.0000
 19  -3421.5722239505   0.000000005827 0.00000243  0.00000002  0.0000013 0.0000
                            ***DIIS convergence achieved***

               *****************************************************
               *                     SUCCESS                       *
               *           SCF CONVERGED AFTER  20 CYCLES          *
               *****************************************************

Old exchange energy                            =   -267.522062901 Eh
New exchange energy                            =   -267.522545207 Eh
Exchange energy change after final integration =     -0.000482306 Eh
Total energy after final integration           =  -3421.572706297 Eh
Final COS-X integration done in                =    73.122 sec

SMD CDS free energy correction energy :               -13.25922     Kcal/mol
Total Energy after SMD CDS correction =             -3421.593836203 Eh

----------------
TOTAL SCF ENERGY
----------------

Total Energy       :        -3421.59383620 Eh          -93106.30172 eV

Components:
Nuclear Repulsion  :        11350.43521660 Eh          308861.04444 eV
Electronic Energy  :       -14772.02905281 Eh         -401967.34615 eV
One Electron Energy:       -27283.86956040 Eh         -742431.83524 eV
[...]
   238a -> 248a  :     0.047748 
   238a -> 250a  :     0.016166 
   238a -> 253a  :     0.016184 

STATE 37:  E=   0.176148 au      4.793 eV    38659.9 cm**-1 <S**2> =   0.000000
   217a -> 239a  :     0.012764 
   220a -> 239a  :     0.013886 
   221a -> 240a  :     0.042561 
   223a -> 239a  :     0.045559 
   224a -> 240a  :     0.065989 
   226a -> 240a  :     0.019699 
   226a -> 241a  :     0.010651 
   227a -> 239a  :     0.020738 
   227a -> 242a  :     0.021742 
   227a -> 243a  :     0.011713 
   228a -> 240a  :     0.013724 
   228a -> 241a  :     0.018500 
   232a -> 240a  :     0.101147 
   232a -> 241a  :     0.012271 
   232a -> 244a  :     0.011672 
   233a -> 239a  :     0.010811 
   234a -> 240a  :     0.135779 
   234a -> 246a  :     0.022512 
   235a -> 245a  :     0.024251 
   236a -> 246a  :     0.026299 
   236a -> 248a  :     0.013885 
   237a -> 244a  :     0.017597 
   237a -> 246a  :     0.011333 
   237a -> 250a  :     0.012908 
   238a -> 247a  :     0.017042 

STATE 38:  E=   0.168780 au      4.593 eV    37042.9 cm**-1 <S**2> =   0.000000
   217a -> 240a  :     0.013292 
   222a -> 239a  :     0.017482 
   227a -> 240a  :     0.031887 
   227a -> 241a  :     0.020858 
   228a -> 239a  :     0.046675 
   231a -> 240a  :     0.102173 
   232a -> 239a  :     0.097255 
   232a -> 242a  :     0.010600 
   233a -> 240a  :     0.123855 
   233a -> 246a  :     0.011354 
   234a -> 239a  :     0.011220 
   235a -> 240a  :     0.019047 
   235a -> 248a  :     0.011889 
   237a -> 243a  :     0.100234 
   237a -> 245a  :     0.014463 
   237a -> 247a  :     0.031720 
   238a -> 241a  :     0.062321 
   238a -> 248a  :     0.038691 

STATE 39:  E=   0.168964 au      4.598 eV    37083.2 cm**-1 <S**2> =   0.000000
   217a -> 239a  :     0.013297 
   218a -> 240a  :     0.011931 
   222a -> 240a  :     0.022558 
   223a -> 239a  :     0.019114 
   225a -> 239a  :     0.070490 
   226a -> 240a  :     0.010148 
   227a -> 239a  :     0.102739 
   232a -> 240a  :     0.118867 
   233a -> 239a  :     0.014605 
   235a -> 239a  :     0.010679 
   235a -> 242a  :     0.012851 
   235a -> 245a  :     0.014562 
   237a -> 241a  :     0.177394 
   238a -> 242a  :     0.104738 
   238a -> 243a  :     0.092484 

STATE 40:  E=   0.169211 au      4.604 eV    37137.4 cm**-1 <S**2> =   0.000000
   221a -> 239a  :     0.028182 
   225a -> 240a  :     0.048660 
   226a -> 239a  :     0.197857 
   227a -> 240a  :     0.067198 
   228a -> 239a  :     0.010933 
   231a -> 240a  :     0.044330 
   232a -> 239a  :     0.033940 
   232a -> 242a  :     0.012633 
   233a -> 240a  :     0.058242 
   234a -> 239a  :     0.076787 
   234a -> 245a  :     0.013564 
   237a -> 245a  :     0.015611 
   237a -> 247a  :     0.014072 
   238a -> 244a  :     0.076215 
   238a -> 248a  :     0.023973 
   238a -> 253a  :     0.017792 


-------------------------
TD-DFT-EXCITATION SPECTRA
-------------------------

Center of mass = (  0.0027, -0.0505, -0.0074)
Calculating the Dipole integrals                  ... done
Transforming integrals                            ... done
Calculating the Linear Momentum integrals         ... done
Transforming integrals                            ... done
Calculating angular momentum integrals            ... done
Transforming integrals                            ... done

-----------------------------------------------------------------------------
         ABSORPTION SPECTRUM VIA TRANSITION ELECTRIC DIPOLE MOMENTS
-----------------------------------------------------------------------------
State   Energy    Wavelength  fosc         T2        TX        TY        TZ  
        (cm-1)      (nm)                 (au**2)    (au)      (au)      (au) 
-----------------------------------------------------------------------------
   1   22933.7    436.0   0.129482896   1.85872  -0.09516  -1.35902  -0.05222
   2   23447.8    426.5   0.633672099   8.89690  -2.97669  -0.09802   0.16320
   3   24017.9    416.4   0.009864127   0.13521   0.00655   0.25566  -0.26420
   4   24736.6    404.3   0.047364980   0.63037  -0.03155   0.78299   0.12767
   5   28779.9    347.5   0.051872664   0.59337  -0.01554   0.76868   0.04757
   6   28140.5    355.4   0.035468790   0.41494  -0.29923   0.05081  -0.56817
   7   28796.7    347.3   0.100928570   1.15384   0.39218   0.03163  -0.99952
   8   28685.5    348.6   0.140444655   1.61182  -0.04544   1.26749   0.05680
   9   32967.8    303.3   0.286781233   2.86376   1.67559   0.08267  -0.22211
  10   33081.0    302.3   0.017076793   0.16994  -0.05258  -0.40636  -0.04523
  11   38239.2    261.5   0.011139293   0.09590   0.04555   0.30611  -0.01100
  12   37983.5    263.3   0.078400373   0.67951   0.74376   0.02770  -0.35434
  13   34048.6    293.7   0.582543877   5.63255  -2.09429   0.11865   1.11014
  14   34284.0    291.7   0.228066466   2.19001   0.35039   1.43459  -0.09576
  15   31139.0    321.1   0.001003919   0.01061   0.04795   0.07921  -0.04516
  16   31341.6    319.1   0.007079344   0.07436  -0.22363  -0.01075   0.15568
  17   37184.8    268.9   0.057629546   0.51022   0.11767  -0.70447  -0.00972
  18   39010.1    256.3   0.485798503   4.09972   1.01176  -0.07021   1.75247
  19   37408.6    267.3   0.002360981   0.02078  -0.10069   0.10314   0.00095
  20   38683.3    258.5   0.005119400   0.04357  -0.01798   0.20778  -0.00850
  21   38311.6    261.0   0.341550899   2.93495  -0.14541   1.70593   0.06010
  22   37890.5    263.9   0.024221494   0.21045  -0.24115   0.00774  -0.39018
  23   38437.6    260.2   0.574648469   4.92177  -0.05517   2.21048   0.18033
  24   37513.1    266.6   0.054628443   0.47941  -0.63002   0.03310  -0.28531
  25   36917.2    270.9   0.003657009   0.03261  -0.00735  -0.14671  -0.10504
  26   35713.7    280.0   0.083639036   0.77099  -0.12856   0.09252  -0.86366
  27   35809.3    279.3   0.008714507   0.08012  -0.05574   0.24689  -0.12670
  28   36659.3    272.8   0.050019546   0.44919  -0.00997   0.66759   0.05847
  29   36277.3    275.7   0.081464544   0.73928  -0.08368  -0.00125  -0.85573
  30   34430.4    290.4   0.042812021   0.40935  -0.04651   0.63625   0.04872
  31   36549.7    273.6   0.131054237   1.18044  -0.96731  -0.02336   0.49416
  32   38106.5    262.4   0.095868815   0.82824   0.90033   0.11546   0.06567
  33   38545.8    259.4   0.042513908   0.36310  -0.13741   0.58363   0.06000
  34   38664.8    258.6   0.040208269   0.34235   0.47261   0.28653  -0.19208
  35   38299.3    261.1   0.034779613   0.29896   0.07987  -0.53578  -0.07428
  36   35909.6    278.5   0.048078717   0.44078  -0.54721  -0.01581  -0.37561
  37   38659.9    258.7   0.027431111   0.23359  -0.06864   0.47814   0.01618
  38   37042.9    270.0   0.065465856   0.58182  -0.74631  -0.07547  -0.13833
  39   37083.2    269.7   0.011969814   0.10626  -0.08654   0.31218  -0.03633
  40   37137.4    269.3   0.031079465   0.27551  -0.33669   0.01638  -0.40234

-----------------------------------------------------------------------------
         ABSORPTION SPECTRUM VIA TRANSITION VELOCITY DIPOLE MOMENTS
-----------------------------------------------------------------------------
State   Energy    Wavelength   fosc        P2         PX        PY        PZ  
        (cm-1)      (nm)                 (au**2)     (au)      (au)      (au) 
-----------------------------------------------------------------------------
   1   22933.7    436.0   0.154269278   0.02418   0.01112   0.15499   0.00594
   2   23447.8    426.5   0.775378416   0.12426   0.35174   0.01175  -0.01995
   3   24017.9    416.4   0.017397475   0.00286   0.00058  -0.03619   0.03932
   4   24736.6    404.3   0.076624230   0.01295   0.00406  -0.11218  -0.01880
   5   28779.9    347.5   0.072599266   0.01428   0.00250  -0.11924  -0.00738
   6   28140.5    355.4   0.050177185   0.00965   0.04393  -0.00805   0.08750
   7   28796.7    347.3   0.139933499   0.02754  -0.06183  -0.00506   0.15392
   8   28685.5    348.6   0.196067737   0.03844   0.00697  -0.19574  -0.00865
   9   32967.8    303.3   0.316182491   0.07124  -0.26422  -0.01288   0.03558
  10   33081.0    302.3   0.022596411   0.00511   0.00795   0.07062   0.00764
  11   38239.2    261.5   0.009419565   0.00246  -0.00804  -0.04891   0.00218
  12   37983.5    263.3   0.075937376   0.01971  -0.12464  -0.00472   0.06446
  13   34048.6    293.7   0.786955029   0.18313   0.37980  -0.02046  -0.19612
  14   34284.0    291.7   0.296529236   0.06948  -0.06419  -0.25510   0.01693
  15   31139.0    321.1   0.001716748   0.00037  -0.00767  -0.01573   0.00769
  16   31341.6    319.1   0.009458799   0.00203   0.03708   0.00143  -0.02548
  17   37184.8    268.9   0.066964058   0.01702  -0.02200   0.12857   0.00186
  18   39010.1    256.3   0.517525750   0.13798  -0.18767   0.01304  -0.32030
  19   37408.6    267.3   0.001802949   0.00046   0.00804  -0.01990   0.00035
  20   38683.3    258.5   0.008216192   0.00217   0.00410  -0.04640   0.00164
  21   38311.6    261.0   0.386971029   0.10132   0.02744  -0.31692  -0.01154
  22   37890.5    263.9   0.033634040   0.00871   0.04930  -0.00038   0.07924
  23   38437.6    260.2   0.689516481   0.18114   0.01091  -0.42409  -0.03410
  24   37513.1    266.6   0.063790730   0.01635   0.11668  -0.00655   0.05194
  25   36917.2    270.9   0.004757532   0.00120   0.00145   0.02805   0.02028
  26   35713.7    280.0   0.118851490   0.02901   0.02415  -0.01796   0.16764
  27   35809.3    279.3   0.012141676   0.00297   0.01073  -0.04742   0.02465
  28   36659.3    272.8   0.065547393   0.01642   0.00170  -0.12763  -0.01145
  29   36277.3    275.7   0.119527566   0.02964   0.01807   0.00031   0.17120
  30   34430.4    290.4   0.069045930   0.01625   0.00878  -0.12680  -0.00957
  31   36549.7    273.6   0.186501375   0.04659   0.19306   0.00447  -0.09641
  32   38106.5    262.4   0.116036698   0.03022  -0.17174  -0.02247  -0.01490
  33   38545.8    259.4   0.057514413   0.01515   0.02659  -0.11974  -0.01037
  34   38664.8    258.6   0.048914958   0.01293  -0.09270  -0.05830   0.03054
  35   38299.3    261.1   0.048146742   0.01260  -0.01642   0.11026   0.01323
  36   35909.6    278.5   0.076890016   0.01887   0.11585   0.00399   0.07371
  37   38659.9    258.7   0.039921327   0.01055   0.01461  -0.10159  -0.00366
  38   37042.9    270.0   0.103006946   0.02608   0.15801   0.01568   0.02940
  39   37083.2    269.7   0.018339839   0.00465   0.01832  -0.06530   0.00700
  40   37137.4    269.3   0.048749057   0.01237   0.07602  -0.00300   0.08115

-------------------------------------------------------------------
                             CD SPECTRUM
-------------------------------------------------------------------
State  Energy     Wavelength     R         MX        MY        MZ   
       (cm-1)       (nm)     (1e40*cgs)   (au)      (au)      (au)  
-------------------------------------------------------------------
   1   22933.7    436.0    -658.46055  -0.09532   1.03525  -0.02266
   2   23447.8    426.5    583.17485  -0.49406   0.01928  -1.42022
   3   24017.9    416.4      8.36871   0.07537  -0.00778  -0.07285
   4   24736.6    404.3    -14.33914  -0.01847  -0.04062   0.00633
   5   28779.9    347.5     11.51433   0.01642   0.03138   0.01172
   6   28140.5    355.4    116.00276  -0.20502   0.01549  -0.32370
   7   28796.7    347.3    -137.95776   0.00354  -0.02142   0.29348
   8   28685.5    348.6    137.89381  -0.00089   0.23040   0.00728
   9   32967.8    303.3    -120.77765  -0.19804  -0.00486  -0.34238
  10   33081.0    302.3     17.71903   0.01511  -0.09548   0.00932
  11   38239.2    261.5    -70.70152   0.02863  -0.49510  -0.02618
  12   37983.5    263.3     28.42704   0.22394   0.01740   0.30125
  13   34048.6    293.7    -114.37583   0.63356   0.02304   0.97422
  14   34284.0    291.7    201.51567  -0.13740   0.31935  -0.18208
  15   31139.0    321.1     -3.66291   0.07301  -0.11954   0.03990
  16   31341.6    319.1     10.51910  -0.22237  -0.03258  -0.17836
  17   37184.8    268.9    -111.12633  -0.03151   0.32774   0.11546
  18   39010.1    256.3    180.11133   0.14331  -0.02784   0.13415
  19   37408.6    267.3    -33.58440   0.65030  -0.06716   1.22982
  20   38683.3    258.5    -21.57241  -0.14623  -0.23074   0.05199
  21   38311.6    261.0    -55.34875   0.12642  -0.05538  -0.07553
  22   37890.5    263.9    -23.34636  -1.21639  -0.07548   0.87720
  23   38437.6    260.2    -115.46431  -0.07358  -0.11525   0.03204
  24   37513.1    266.6     43.77475  -0.08851   0.02002  -0.12768
  25   36917.2    270.9      2.37768  -0.03862   0.02091  -0.07452
  26   35713.7    280.0    435.27892  -0.77141   0.03026  -0.95096
  27   35809.3    279.3    -12.49636  -0.09774  -0.19637  -0.13045
  28   36659.3    272.8    -30.33270   0.02860  -0.09205  -0.04450
  29   36277.3    275.7     38.95518  -0.13445   0.01734  -0.08344
  30   34430.4    290.4    -56.27050   0.04861  -0.18627   0.02919
  31   36549.7    273.6     50.01429  -0.01212  -0.01651   0.19017
  32   38106.5    262.4    -66.69448  -0.16460  -0.03724   0.16787
  33   38545.8    259.4      9.70513  -0.00368   0.03415   0.00245
  34   38664.8    258.6     50.19488   0.13858   0.01339  -0.19335
  35   38299.3    261.1    -28.25465   0.04047   0.12320  -0.03829
  36   35909.6    278.5    -39.90950   0.16256   0.02010  -0.01230
  37   38659.9    258.7    -15.64892   0.02678  -0.06561   0.00085
  38   37042.9    270.0     88.92570  -0.25259   0.00258  -0.00222
  39   37083.2    269.7    -26.52979   0.02243  -0.17184   0.01887
  40   37137.4    269.3    -73.03799   0.16543  -0.01473   0.24601

-------------------------------------------------------------------
         CD SPECTRUM VIA TRANSITION VELOCITY DIPOLE MOMENTS        
-------------------------------------------------------------------
State  Energy     Wavelength     R         MX        MY        MZ   
       (cm-1)       (nm)     (1e40*cgs)   (au)      (au)      (au)  
-------------------------------------------------------------------
   1   22933.7    436.0    -718.53144  -0.09532   1.03525  -0.02266
   2   23447.8    426.5    640.86261  -0.49406   0.01928  -1.42022
   3   24017.9    416.4     10.93875   0.07537  -0.00778  -0.07285
   4   24736.6    404.3    -18.24980  -0.01847  -0.04062   0.00633
   5   28779.9    347.5     13.61625   0.01642   0.03138   0.01172
   6   28140.5    355.4    137.71830  -0.20502   0.01549  -0.32370
   7   28796.7    347.3    -161.91320   0.00354  -0.02142   0.29348
   8   28685.5    348.6    162.93037  -0.00089   0.23040   0.00728
   9   32967.8    303.3    -126.18706  -0.19804  -0.00486  -0.34238
  10   33081.0    302.3     20.49236   0.01511  -0.09548   0.00932
  11   38239.2    261.5    -64.75185   0.02863  -0.49510  -0.02618
  12   37983.5    263.3     23.36606   0.22394   0.01740   0.30125
  13   34048.6    293.7    -149.17738   0.63356   0.02304   0.97422
  14   34284.0    291.7    228.55525  -0.13740   0.31935  -0.18208
  15   31139.0    321.1     -5.40654   0.07301  -0.11954   0.03990
  16   31341.6    319.1     12.37323  -0.22237  -0.03258  -0.17836
  17   37184.8    268.9    -119.77947  -0.03151   0.32774   0.11546
  18   39010.1    256.3    186.26520   0.14331  -0.02784   0.13415
  19   37408.6    267.3    -19.35077   0.65030  -0.06716   1.22982
  20   38683.3    258.5    -27.26259  -0.14623  -0.23074   0.05199
  21   38311.6    261.0    -59.12609   0.12642  -0.05538  -0.07553
  22   37890.5    263.9    -26.13352  -1.21639  -0.07548   0.87720
  23   38437.6    260.2    -126.46696  -0.07358  -0.11525   0.03204
  24   37513.1    266.6     47.13732  -0.08851   0.02002  -0.12768
  25   36917.2    270.9      2.74898  -0.03862   0.02091  -0.07452
  26   35713.7    280.0    517.42702  -0.77141   0.03026  -0.95096
  27   35809.3    279.3    -14.58700  -0.09774  -0.19637  -0.13045
  28   36659.3    272.8    -34.73526   0.02860  -0.09205  -0.04450
  29   36277.3    275.7     47.65456  -0.13445   0.01734  -0.08344
  30   34430.4    290.4    -71.42657   0.04861  -0.18627   0.02919
  31   36549.7    273.6     58.73679  -0.01212  -0.01651   0.19017
  32   38106.5    262.4    -72.23349  -0.16460  -0.03724   0.16787
  33   38545.8    259.4     11.30854  -0.00368   0.03415   0.00245
  34   38664.8    258.6     52.26859   0.13858   0.01339  -0.19335
  35   38299.3    261.1    -33.53728   0.04047   0.12320  -0.03829
  36   35909.6    278.5    -51.88552   0.16256   0.02010  -0.01230
  37   38659.9    258.7    -18.87755   0.02678  -0.06561   0.00085
  38   37042.9    270.0    111.55500  -0.25259   0.00258  -0.00222
  39   37083.2    269.7    -32.82341   0.02243  -0.17184   0.01887
  40   37137.4    269.3    -90.78478   0.16543  -0.01473   0.24601

Total run time:    38139.206 sec

           *** ORCA-CIS/TD-DFT FINISHED WITHOUT ERROR ***

Maximum memory used throughout the entire CIS-calculation: 7737.7 MB

-----------------------
CIS/TD-DFT TOTAL ENERGY
-----------------------

    E(SCF)  =  -3421.593836203 Eh
    DE(CIS) =      0.104493706 Eh (Root  1)
    ----------------------------- ---------
    E(tot)  =  -3421.489342497 Eh


-------------------------   --------------------
FINAL SINGLE POINT ENERGY     -3421.489342497425
-------------------------   --------------------


                            ***************************************
                            *     ORCA property calculations      *
                            ***************************************


  WARNING: The energy has been calculated at the MP2 level but the densities
           used in the property calculations are still SCF densities
           MP2 response densities have not been calculated 
           use %mp2 Density relaxed end
           or  %mp2 Density unrelaxed end

                                    ---------------------
                                    Active property flags
                                    ---------------------
   (+) Dipole Moment


------------------------------------------------------------------------------
                       ORCA ELECTRIC PROPERTIES CALCULATION
------------------------------------------------------------------------------

Dipole Moment Calculation                       ... on
Quadrupole Moment Calculation                   ... off
Polarizability Calculation                      ... off
GBWName                                         ... Ir_isoCN_5_B2GPPLYP_def2SVP.gbw
Electron density                                ... Ir_isoCN_5_B2GPPLYP_def2SVP.scfp
The origin for moment calculation is the CENTER OF MASS  = ( 0.002652, -0.050476 -0.007417)

-------------
DIPOLE MOMENT
-------------
                                X             Y             Z
Electronic contribution:      0.60558     -10.63087      -7.01994
Nuclear contribution   :     -0.75574      13.58611       7.27239
                        -----------------------------------------
Total Dipole Moment    :     -0.15016       2.95524       0.25245
                        -----------------------------------------
Magnitude (a.u.)       :      2.96980
Magnitude (Debye)      :      7.54862



--------------------
Rotational spectrum 
--------------------
 
Rotational constants in cm-1:     0.001222     0.001139     0.001103 
Rotational constants in MHz :    36.645732    34.144706    33.054055 

 Dipole components along the rotational axes: 
x,y,z [a.u.] :    -0.150219    -2.952422     0.283429 
x,y,z [Debye]:    -0.381826    -7.504460     0.720420 

 

Timings for individual modules:

Sum of individual times         ...    39447.987 sec (= 657.466 min)
GTO integral calculation        ...        5.408 sec (=   0.090 min)   0.0 %
SCF iterations                  ...      674.286 sec (=  11.238 min)   1.7 %
MP2 module                      ...      627.522 sec (=  10.459 min)   1.6 %
CIS module                      ...    38140.771 sec (= 635.680 min)  96.7 %
                             ****ORCA TERMINATED NORMALLY****
TOTAL RUN TIME: 0 days 10 hours 57 minutes 32 seconds 478 msec
