
                                 *****************
                                 * O   R   C   A *
                                 *****************

                                            #,                                       
                                            ###                                      
                                            ####                                     
                                            #####                                    
                                            ######                                   
                                           ########,                                 
                                     ,,################,,,,,                         
                               ,,#################################,,                 
                          ,,##########################################,,             
                       ,#########################################, ''#####,          
                    ,#############################################,,   '####,        
                  ,##################################################,,,,####,       
                ,###########''''           ''''###############################       
              ,#####''   ,,,,##########,,,,          '''####'''          '####       
            ,##' ,,,,###########################,,,                        '##       
           ' ,,###''''                  '''############,,,                           
         ,,##''                                '''############,,,,        ,,,,,,###''
      ,#''                                            '''#######################'''  
     '                                                          ''''####''''         
             ,#######,   #######,   ,#######,      ##                                
            ,#'     '#,  ##    ##  ,#'     '#,    #''#        ######   ,####,        
            ##       ##  ##   ,#'  ##            #'  '#       #        #'  '#        
            ##       ##  #######   ##           ,######,      #####,   #    #        
            '#,     ,#'  ##    ##  '#,     ,#' ,#      #,         ##   #,  ,#        
             '#######'   ##     ##  '#######'  #'      '#     #####' # '####'        



                  #######################################################
                  #                        -***-                        #
                  #          Department of theory and spectroscopy      #
                  #    Directorship and core code : Frank Neese         #
                  #        Max Planck Institute fuer Kohlenforschung    #
                  #                Kaiser Wilhelm Platz 1               #
                  #                 D-45470 Muelheim/Ruhr               #
                  #                      Germany                        #
                  #                                                     #
                  #                  All rights reserved                #
                  #                        -***-                        #
                  #######################################################


                         Program Version 5.0.4 -  RELEASE  -


 With contributions from (in alphabetic order):
   Daniel Aravena         : Magnetic Suceptibility
   Michael Atanasov       : Ab Initio Ligand Field Theory (pilot matlab implementation)
   Alexander A. Auer      : GIAO ZORA, VPT2 properties, NMR spectrum
   Ute Becker             : Parallelization
   Giovanni Bistoni       : ED, misc. LED, open-shell LED, HFLD
   Martin Brehm           : Molecular dynamics
   Dmytro Bykov           : SCF Hessian
   Vijay G. Chilkuri      : MRCI spin determinant printing, contributions to CSF-ICE
   Dipayan Datta          : RHF DLPNO-CCSD density
   Achintya Kumar Dutta   : EOM-CC, STEOM-CC
   Dmitry Ganyushin       : Spin-Orbit,Spin-Spin,Magnetic field MRCI
   Miquel Garcia          : C-PCM and meta-GGA Hessian, CC/C-PCM, Gaussian charge scheme
   Yang Guo               : DLPNO-NEVPT2, F12-NEVPT2, CIM, IAO-localization
   Andreas Hansen         : Spin unrestricted coupled pair/coupled cluster methods
   Benjamin Helmich-Paris : MC-RPA, TRAH-SCF, COSX integrals
   Lee Huntington         : MR-EOM, pCC
   Robert Izsak           : Overlap fitted RIJCOSX, COSX-SCS-MP3, EOM
   Marcus Kettner         : VPT2
   Christian Kollmar      : KDIIS, OOCD, Brueckner-CCSD(T), CCSD density, CASPT2, CASPT2-K
   Simone Kossmann        : Meta GGA functionals, TD-DFT gradient, OOMP2, MP2 Hessian
   Martin Krupicka        : Initial AUTO-CI
   Lucas Lang             : DCDCAS
   Marvin Lechner         : AUTO-CI (C++ implementation), FIC-MRCC
   Dagmar Lenk            : GEPOL surface, SMD
   Dimitrios Liakos       : Extrapolation schemes; Compound Job, initial MDCI parallelization
   Dimitrios Manganas     : Further ROCIS development; embedding schemes
   Dimitrios Pantazis     : SARC Basis sets
   Anastasios Papadopoulos: AUTO-CI, single reference methods and gradients
   Taras Petrenko         : DFT Hessian,TD-DFT gradient, ASA, ECA, R-Raman, ABS, FL, XAS/XES, NRVS
   Peter Pinski           : DLPNO-MP2, DLPNO-MP2 Gradient
   Christoph Reimann      : Effective Core Potentials
   Marius Retegan         : Local ZFS, SOC
   Christoph Riplinger    : Optimizer, TS searches, QM/MM, DLPNO-CCSD(T), (RO)-DLPNO pert. Triples
   Tobias Risthaus        : Range-separated hybrids, TD-DFT gradient, RPA, STAB
   Michael Roemelt        : Original ROCIS implementation
   Masaaki Saitow         : Open-shell DLPNO-CCSD energy and density
   Barbara Sandhoefer     : DKH picture change effects
   Avijit Sen             : IP-ROCIS
   Kantharuban Sivalingam : CASSCF convergence, NEVPT2, FIC-MRCI
   Bernardo de Souza      : ESD, SOC TD-DFT
   Georgi Stoychev        : AutoAux, RI-MP2 NMR, DLPNO-MP2 response
   Willem Van den Heuvel  : Paramagnetic NMR
   Boris Wezisla          : Elementary symmetry handling
   Frank Wennmohs         : Technical directorship


 We gratefully acknowledge several colleagues who have allowed us to
 interface, adapt or use parts of their codes:
   Stefan Grimme, W. Hujo, H. Kruse, P. Pracht,  : VdW corrections, initial TS optimization,
                  C. Bannwarth, S. Ehlert          DFT functionals, gCP, sTDA/sTD-DF
   Ed Valeev, F. Pavosevic, A. Kumar             : LibInt (2-el integral package), F12 methods
   Garnet Chan, S. Sharma, J. Yang, R. Olivares  : DMRG
   Ulf Ekstrom                                   : XCFun DFT Library
   Mihaly Kallay                                 : mrcc  (arbitrary order and MRCC methods)
   Jiri Pittner, Ondrej Demel                    : Mk-CCSD
   Frank Weinhold                                : gennbo (NPA and NBO analysis)
   Christopher J. Cramer and Donald G. Truhlar   : smd solvation model
   Lars Goerigk                                  : TD-DFT with DH, B97 family of functionals
   V. Asgeirsson, H. Jonsson                     : NEB implementation
   FAccTs GmbH                                   : IRC, NEB, NEB-TS, DLPNO-Multilevel, CI-OPT
                                                   MM, QMMM, 2- and 3-layer-ONIOM, Crystal-QMMM,
                                                   LR-CPCM, SF, NACMEs, symmetry and pop. for TD-DFT,
                                                   nearIR, NL-DFT gradient (VV10), updates on ESD,
                                                   ML-optimized integration grids
   S Lehtola, MJT Oliveira, MAL Marques          : LibXC Library
   Liviu Ungur et al                             : ANISO software


 Your calculation uses the libint2 library for the computation of 2-el integrals
 For citations please refer to: http://libint.valeyev.net

 Your ORCA version has been built with support for libXC version: 5.1.0
 For citations please refer to: https://tddft.org/programs/libxc/

 This ORCA versions uses:
   CBLAS   interface :  Fast vector & matrix operations
   LAPACKE interface :  Fast linear algebra routines
   SCALAPACK package :  Parallel linear algebra routines
   Shared memory     :  Shared parallel matrices
   BLAS/LAPACK       :  OpenBLAS 0.3.15  USE64BITINT DYNAMIC_ARCH NO_AFFINITY Zen SINGLE_THREADED
        Core in use  :  Zen
   Copyright (c) 2011-2014, The OpenBLAS Project


Your calculation utilizes the SMD solvation module
Please cite in your paper:
A.V. Marenich, C.J. Cramer, D.G. Truhlar J. Phys. Chem. B, 113, (2009), 6378 

XCFun DFT library Copyright 2009-2010 Ulf Ekstrom and contributors.
See http://admol.org/xcfun for more information.
This is free software; see the source code for copying conditions.
There is ABSOLUTELY NO WARRANTY; not even for MERCHANTABILITY or FITNESS FOR A PARTICULAR PURPOSE.
For details see the documentation.
Scientific users of this library should cite U. Ekstrom, L. Visscher, R. Bast, A. J. Thorvaldsen and K. Ruud;
J.Chem.Theor.Comp. 2010, DOI: 10.1021/ct100117s
XCFun Version 0.99 

================================================================================

----- Orbital basis set information -----
Your calculation utilizes the basis: ZORA-def2-SVP 
   Exponents from def2-SVP [F. Weigend and R. Ahlrichs, Phys. Chem. Chem. Phys. 7, 3297 (2005)],
   recontracted for ZORA by D. A. Pantazis.

The basis set includes element-specific modifications.

Your calculation utilizes the basis: SARC-ZORA-TZVP 
   Rb-Xe:  J. D. Rolfes, F. Neese and D. A. Pantazis, J. Comput. Chem. 41, 1842 (2020).
   La-Lu:  D. A. Pantazis and F. Neese, J. Chem. Theory Comput. 5, 2229 (2009).
   Hf-Hg:  D. A. Pantazis, X. Y. Chen, C. R. Landis and F. Neese, J. Chem. Theory Comput. 4, 908 (2008).
   Tl-Rn:  D. A. Pantazis and F. Neese, Theor. Chem. Acc. 131, 1292 (2012).
   Ac-Lr:  D. A. Pantazis and F. Neese, J. Chem. Theory Comput. 7, 677 (2011).

----- AuxJ basis set information -----
Your calculation utilizes the auxiliary basis: SARC/J 
   decontracted def2/J up to Kr:
   F. Weigend, Phys. Chem. Chem. Phys. 8, 1057 (2006)
   and SARC auxiliary basis sets beyond Kr:
   D. A. Pantazis and F. Neese, J. Chem. Theory Comput. 5, 2229 (2009).
   D. A. Pantazis, X. Y. Chen, C. R. Landis and F. Neese, J. Chem. Theory Comput. 4, 908 (2008).
   D. A. Pantazis and F. Neese, Theor. Chem. Acc. 131, 1292 (2012).
   D. A. Pantazis and F. Neese, J. Chem. Theory Comput. 7, 677 (2011).

================================================================================
                                        WARNINGS
                       Please study these warnings very carefully!
================================================================================

INFO   : Checking CIS options ...

INFO   : Since TDDFT/CIS Mode == RPA_AOINTS, the TAMMDANCOFF/TDA keyword is ignored. 


WARNING: (CIS/TDDFT): Spin-orbit needs TRIPLETS set to TRUE
  ===> : ajusting flags

WARNING: CIS/ROCIS methods need fully converged wavefunctions
  ===> : Setting SCFConvForced true
         You can overwrite this default with %scf ConvForced false 


INFO   : the flag for use of the SHARK integral package has been found!

================================================================================
                                       INPUT FILE
================================================================================
NAME = Ir_isoCN_5_SOC-M06L_def2SVP.inp
|  1> %maxcore 12000
|  2> %pal
|  3>  nprocs 8
|  4> end
|  5> ! M06L ZORA ZORA-DEF2-SVP SARC/J CPCM RI-SOMF(1X) DEFGRID3
|  6> 
|  7> %TDDFT 
|  8>     NROOTS    60
|  9>     TDA       FALSE
| 10>     DOSOC     TRUE
| 11> END
| 12> 
| 13> %CPCM
| 14>     SMD		TRUE
| 15>     SMDsolvent	"Acetonitrile"
| 16> END
| 17> 
| 18> %BASIS
| 19> 	NEWGTO  RU      "SARC-ZORA-TZVP" END
| 20> 	NEWGTO  IR      "SARC-ZORA-TZVP" END
| 21> END
| 22> 
| 23> * xyz 1 1
| 24> Ir                 -0.00795300    0.09393300   -0.02177500
| 25> S                   0.19065800   -3.16501400   -3.19042300
| 26> S                   0.03240200   -3.57554000    2.67460300
| 27> N                   1.72630000    0.01403700   -1.26914600
| 28> N                  -1.72809000   -0.28689300    1.19120600
| 29> N                   1.12502100    1.89178600    2.36391900
| 30> N                  -1.26377200    2.24237800   -2.02570000
| 31> C                   2.72506200    0.97335600   -1.33372400
| 32> C                   2.49323400    2.28001200   -0.85097900
| 33> H                   1.51617700    2.53638100   -0.44558300
| 34> C                   3.46796900    3.25600000   -0.94205100
| 35> H                   3.25465200    4.26429500   -0.57965400
| 36> C                   4.71433000    2.96064700   -1.51321600
| 37> H                   5.48537100    3.73037800   -1.58262900
| 38> C                   4.95524000    1.69251800   -2.00762100
| 39> H                   5.91858500    1.47786300   -2.47184100
| 40> C                   3.97907300    0.67711300   -1.94014600
| 41> C                   4.20446200   -0.65776200   -2.44585200
| 42> C                   5.46594500   -1.09605900   -2.89780900
| 43> H                   6.31505000   -0.41233500   -2.88141800
| 44> C                   5.65363400   -2.39149400   -3.34296900
| 45> H                   6.64170400   -2.71066300   -3.68150800
| 46> C                   4.58623500   -3.30171200   -3.33468200
| 47> H                   4.74126600   -4.33555000   -3.64895400
| 48> C                   3.33754700   -2.89501600   -2.90571100
| 49> H                   2.54232300   -3.63725000   -2.85231300
| 50> C                   3.11224800   -1.56919900   -2.47127100
| 51> C                   1.83370900   -1.14226600   -1.95251400
| 52> C                  -0.52473200   -1.36164800   -1.40654900
| 53> C                  -1.72363000   -2.04387200   -1.78045500
| 54> C                  -3.05551400   -1.81468400   -1.37183500
| 55> H                  -3.27782900   -0.99783200   -0.68283100
| 56> C                  -4.08069400   -2.60271100   -1.86933100
| 57> H                  -5.10879500   -2.42214300   -1.54588800
| 58> C                  -3.81274700   -3.62736900   -2.79544700
| 59> H                  -4.63237000   -4.24131100   -3.17583100
| 60> C                  -2.51988900   -3.86131200   -3.24836000
| 61> H                  -2.31841100   -4.64376500   -3.98302600
| 62> C                  -1.48606600   -3.06682800   -2.74301100
| 63> C                   0.58217100   -1.84825600   -2.08074000
| 64> C                  -2.78972600    0.58215000    1.39012400
| 65> C                  -2.64145700    1.96146000    1.12820000
| 66> H                  -1.67738800    2.34338700    0.79928500
| 67> C                  -3.68303000    2.84383500    1.34522300
| 68> H                  -3.53393200    3.90869200    1.15107300
| 69> C                  -4.91425000    2.37892500    1.83035200
| 70> H                  -5.73879800    3.07448800    1.99798300
| 71> C                  -5.07130800    1.03607300    2.11886400
| 72> H                  -6.02214100    0.68695000    2.52333900
| 73> C                  -4.02512900    0.11172800    1.91922200
| 74> C                  -4.15691900   -1.29593400    2.21851100
| 75> C                  -5.38682900   -1.88417800    2.57728000
| 76> H                  -6.28421500   -1.26809600    2.63949800
| 77> C                  -5.48149300   -3.23988700    2.83156200
| 78> H                  -6.44626300   -3.67496300    3.10113100
| 79> C                  -4.34858100   -4.05952800    2.71876600
| 80> H                  -4.42886100   -5.13564000    2.88349500
| 81> C                  -3.12956400   -3.50702200    2.37619700
| 82> H                  -2.28017200   -4.17447300    2.23718600
| 83> C                  -3.00003200   -2.12036300    2.13549800
| 84> C                  -1.75426500   -1.53456900    1.69825300
| 85> C                   0.61064300   -1.51853400    1.13169800
| 86> C                   1.85616000   -2.15723000    1.42082500
| 87> C                   3.16687000   -1.78634300    1.04966800
| 88> H                   3.32843000   -0.87970100    0.46450700
| 89> C                   4.24793400   -2.55129900    1.45619900
| 90> H                   5.25913000   -2.25961600    1.16200700
| 91> C                   4.05806000   -3.69379500    2.25480500
| 92> H                   4.92129800   -4.28636400    2.56642600
| 93> C                   2.78664500   -4.07349000    2.66778500
| 94> H                   2.64480500   -4.94954000    3.30414900
| 95> C                   1.69622900   -3.30307400    2.25197900
| 96> C                  -0.45598600   -2.16355300    1.73319300
| 97> C                   0.70544200    1.29539600    1.44276400
| 98> C                   1.64581800    2.59252500    3.42462300
| 99> C                   2.32349800    1.87161300    4.43097500
|100> C                   2.85009700    2.60939200    5.49390800
|101> H                   3.38108200    2.08177800    6.28994900
|102> C                   2.70631200    3.99536600    5.54502300
|103> H                   3.12865600    4.55192400    6.38484700
|104> C                   2.02712300    4.67815700    4.53670400
|105> H                   1.91554900    5.76400700    4.58635300
|106> C                   1.47600400    3.99304500    3.45127200
|107> C                   2.46141100    0.38986200    4.33497400
|108> H                   2.97221500   -0.02223100    5.21297200
|109> H                   3.03592700    0.09821000    3.44151600
|110> H                   1.48123900   -0.10519400    4.24589100
|111> C                   0.72229300    4.68451500    2.36588000
|112> H                   0.74682800    5.77311600    2.49231800
|113> H                  -0.33391800    4.37161600    2.35357300
|114> H                   1.12721500    4.44677200    1.37045700
|115> C                  -0.80019500    1.48945600   -1.25198900
|116> C                  -1.81886000    3.16450800   -2.87932400
|117> C                  -1.62701100    4.53383000   -2.59613700
|118> C                  -2.20646900    5.45093100   -3.47609300
|119> H                  -2.07788000    6.51910600   -3.28494500
|120> C                  -2.93621000    5.01880000   -4.58299900
|121> H                  -3.37962600    5.75394500   -5.25853500
|122> C                  -3.10513300    3.65826500   -4.83705100
|123> H                  -3.67791500    3.32829800   -5.70716000
|124> C                  -2.55064800    2.69532000   -3.99043000
|125> C                  -0.82487000    4.95410800   -1.41108200
|126> H                  -1.19811900    4.49474200   -0.48299800
|127> H                  -0.83905500    6.04263500   -1.28203400
|128> H                   0.22665900    4.64102800   -1.51036200
|129> C                  -2.71341500    1.23165800   -4.22277700
|130> H                  -3.28157700    1.03239700   -5.13868600
|131> H                  -3.24030300    0.74877900   -3.38497000
|132> H                  -1.73987600    0.72330300   -4.30797000
|133> *
|134> 
|135>                          ****END OF INPUT****
================================================================================

                       ****************************
                       * Single Point Calculation *
                       ****************************

---------------------------------
CARTESIAN COORDINATES (ANGSTROEM)
---------------------------------
  Ir    -0.007953    0.093933   -0.021775
  S      0.190658   -3.165014   -3.190423
  S      0.032402   -3.575540    2.674603
  N      1.726300    0.014037   -1.269146
  N     -1.728090   -0.286893    1.191206
  N      1.125021    1.891786    2.363919
  N     -1.263772    2.242378   -2.025700
  C      2.725062    0.973356   -1.333724
  C      2.493234    2.280012   -0.850979
  H      1.516177    2.536381   -0.445583
  C      3.467969    3.256000   -0.942051
  H      3.254652    4.264295   -0.579654
  C      4.714330    2.960647   -1.513216
  H      5.485371    3.730378   -1.582629
  C      4.955240    1.692518   -2.007621
  H      5.918585    1.477863   -2.471841
  C      3.979073    0.677113   -1.940146
  C      4.204462   -0.657762   -2.445852
  C      5.465945   -1.096059   -2.897809
  H      6.315050   -0.412335   -2.881418
  C      5.653634   -2.391494   -3.342969
  H      6.641704   -2.710663   -3.681508
  C      4.586235   -3.301712   -3.334682
  H      4.741266   -4.335550   -3.648954
  C      3.337547   -2.895016   -2.905711
  H      2.542323   -3.637250   -2.852313
  C      3.112248   -1.569199   -2.471271
  C      1.833709   -1.142266   -1.952514
  C     -0.524732   -1.361648   -1.406549
  C     -1.723630   -2.043872   -1.780455
  C     -3.055514   -1.814684   -1.371835
  H     -3.277829   -0.997832   -0.682831
  C     -4.080694   -2.602711   -1.869331
  H     -5.108795   -2.422143   -1.545888
  C     -3.812747   -3.627369   -2.795447
  H     -4.632370   -4.241311   -3.175831
  C     -2.519889   -3.861312   -3.248360
  H     -2.318411   -4.643765   -3.983026
  C     -1.486066   -3.066828   -2.743011
  C      0.582171   -1.848256   -2.080740
  C     -2.789726    0.582150    1.390124
  C     -2.641457    1.961460    1.128200
  H     -1.677388    2.343387    0.799285
  C     -3.683030    2.843835    1.345223
  H     -3.533932    3.908692    1.151073
  C     -4.914250    2.378925    1.830352
  H     -5.738798    3.074488    1.997983
  C     -5.071308    1.036073    2.118864
  H     -6.022141    0.686950    2.523339
  C     -4.025129    0.111728    1.919222
  C     -4.156919   -1.295934    2.218511
  C     -5.386829   -1.884178    2.577280
  H     -6.284215   -1.268096    2.639498
  C     -5.481493   -3.239887    2.831562
  H     -6.446263   -3.674963    3.101131
  C     -4.348581   -4.059528    2.718766
  H     -4.428861   -5.135640    2.883495
  C     -3.129564   -3.507022    2.376197
  H     -2.280172   -4.174473    2.237186
  C     -3.000032   -2.120363    2.135498
  C     -1.754265   -1.534569    1.698253
  C      0.610643   -1.518534    1.131698
  C      1.856160   -2.157230    1.420825
  C      3.166870   -1.786343    1.049668
  H      3.328430   -0.879701    0.464507
  C      4.247934   -2.551299    1.456199
  H      5.259130   -2.259616    1.162007
  C      4.058060   -3.693795    2.254805
  H      4.921298   -4.286364    2.566426
  C      2.786645   -4.073490    2.667785
  H      2.644805   -4.949540    3.304149
  C      1.696229   -3.303074    2.251979
  C     -0.455986   -2.163553    1.733193
  C      0.705442    1.295396    1.442764
  C      1.645818    2.592525    3.424623
  C      2.323498    1.871613    4.430975
  C      2.850097    2.609392    5.493908
  H      3.381082    2.081778    6.289949
  C      2.706312    3.995366    5.545023
  H      3.128656    4.551924    6.384847
  C      2.027123    4.678157    4.536704
  H      1.915549    5.764007    4.586353
  C      1.476004    3.993045    3.451272
  C      2.461411    0.389862    4.334974
  H      2.972215   -0.022231    5.212972
  H      3.035927    0.098210    3.441516
  H      1.481239   -0.105194    4.245891
  C      0.722293    4.684515    2.365880
  H      0.746828    5.773116    2.492318
  H     -0.333918    4.371616    2.353573
  H      1.127215    4.446772    1.370457
  C     -0.800195    1.489456   -1.251989
  C     -1.818860    3.164508   -2.879324
  C     -1.627011    4.533830   -2.596137
  C     -2.206469    5.450931   -3.476093
  H     -2.077880    6.519106   -3.284945
  C     -2.936210    5.018800   -4.582999
  H     -3.379626    5.753945   -5.258535
  C     -3.105133    3.658265   -4.837051
  H     -3.677915    3.328298   -5.707160
  C     -2.550648    2.695320   -3.990430
  C     -0.824870    4.954108   -1.411082
  H     -1.198119    4.494742   -0.482998
  H     -0.839055    6.042635   -1.282034
  H      0.226659    4.641028   -1.510362
  C     -2.713415    1.231658   -4.222777
  H     -3.281577    1.032397   -5.138686
  H     -3.240303    0.748779   -3.384970
  H     -1.739876    0.723303   -4.307970

----------------------------
CARTESIAN COORDINATES (A.U.)
----------------------------
  NO LB      ZA    FRAG     MASS         X           Y           Z
   0 Ir   77.0000    0   192.220   -0.015029    0.177508   -0.041149
   1 S    16.0000    0    32.060    0.360291   -5.981010   -6.029026
   2 S    16.0000    0    32.060    0.061231   -6.756791    5.054267
   3 N     7.0000    0    14.007    3.262234    0.026526   -2.398338
   4 N     7.0000    0    14.007   -3.265617   -0.542149    2.251053
   5 N     7.0000    0    14.007    2.125982    3.574957    4.467160
   6 N     7.0000    0    14.007   -2.388183    4.237480   -3.828018
   7 C     6.0000    0    12.011    5.149621    1.839376   -2.520373
   8 C     6.0000    0    12.011    4.711529    4.308598   -1.608117
   9 H     1.0000    0     1.008    2.865159    4.793065   -0.842030
  10 C     6.0000    0    12.011    6.553512    6.152948   -1.780218
  11 H     1.0000    0     1.008    6.150401    8.058350   -1.095387
  12 C     6.0000    0    12.011    8.908793    5.594812   -2.859564
  13 H     1.0000    0     1.008   10.365849    7.049393   -2.990735
  14 C     6.0000    0    12.011    9.364047    3.198395   -3.793854
  15 H     1.0000    0     1.008   11.184505    2.792756   -4.671103
  16 C     6.0000    0    12.011    7.519358    1.279558   -3.666345
  17 C     6.0000    0    12.011    7.945282   -1.242990   -4.621990
  18 C     6.0000    0    12.011   10.329139   -2.071251   -5.476065
  19 H     1.0000    0     1.008   11.933715   -0.779200   -5.445091
  20 C     6.0000    0    12.011   10.683820   -4.519269   -6.317296
  21 H     1.0000    0     1.008   12.551002   -5.122411   -6.957042
  22 C     6.0000    0    12.011    8.666728   -6.239331   -6.301636
  23 H     1.0000    0     1.008    8.959694   -8.193002   -6.895524
  24 C     6.0000    0    12.011    6.307050   -5.470787   -5.490998
  25 H     1.0000    0     1.008    4.804294   -6.873406   -5.390090
  26 C     6.0000    0    12.011    5.881296   -2.965356   -4.670025
  27 C     6.0000    0    12.011    3.465208   -2.158570   -3.689717
  28 C     6.0000    0    12.011   -0.991600   -2.573142   -2.657992
  29 C     6.0000    0    12.011   -3.257189   -3.862358   -3.364572
  30 C     6.0000    0    12.011   -5.774085   -3.429256   -2.592392
  31 H     1.0000    0     1.008   -6.194199   -1.885629   -1.290364
  32 C     6.0000    0    12.011   -7.711394   -4.918411   -3.532524
  33 H     1.0000    0     1.008   -9.654223   -4.577187   -2.921305
  34 C     6.0000    0    12.011   -7.205048   -6.854734   -5.282629
  35 H     1.0000    0     1.008   -8.753911   -8.014916   -6.001451
  36 C     6.0000    0    12.011   -4.761900   -7.296822   -6.138511
  37 H     1.0000    0     1.008   -4.381162   -8.775444   -7.526828
  38 C     6.0000    0    12.011   -2.808258   -5.795465   -5.183540
  39 C     6.0000    0    12.011    1.100144   -3.492698   -3.932029
  40 C     6.0000    0    12.011   -5.271818    1.100104    2.626954
  41 C     6.0000    0    12.011   -4.991630    3.706622    2.131989
  42 H     1.0000    0     1.008   -3.169804    4.428360    1.510430
  43 C     6.0000    0    12.011   -6.959918    5.374069    2.542103
  44 H     1.0000    0     1.008   -6.678164    7.386357    2.175213
  45 C     6.0000    0    12.011   -9.286587    4.495517    3.458864
  46 H     1.0000    0     1.008  -10.844757    5.809940    3.775641
  47 C     6.0000    0    12.011   -9.583383    1.957894    4.004073
  48 H     1.0000    0     1.008  -11.380197    1.298147    4.768420
  49 C     6.0000    0    12.011   -7.606391    0.211135    3.626804
  50 C     6.0000    0    12.011   -7.855438   -2.448960    4.192378
  51 C     6.0000    0    12.011  -10.179632   -3.560580    4.870353
  52 H     1.0000    0     1.008  -11.875445   -2.396354    4.987928
  53 C     6.0000    0    12.011  -10.358521   -6.122499    5.350877
  54 H     1.0000    0     1.008  -12.181672   -6.944674    5.860288
  55 C     6.0000    0    12.011   -8.217627   -7.671396    5.137723
  56 H     1.0000    0     1.008   -8.369334   -9.704953    5.449016
  57 C     6.0000    0    12.011   -5.914019   -6.627311    4.490362
  58 H     1.0000    0     1.008   -4.308901   -7.888611    4.227669
  59 C     6.0000    0    12.011   -5.669239   -4.006905    4.035506
  60 C     6.0000    0    12.011   -3.315080   -2.899915    3.209233
  61 C     6.0000    0    12.011    1.153948   -2.869613    2.138599
  62 C     6.0000    0    12.011    3.507634   -4.076574    2.684970
  63 C     6.0000    0    12.011    5.984517   -3.375699    1.983585
  64 H     1.0000    0     1.008    6.289821   -1.662394    0.877791
  65 C     6.0000    0    12.011    8.027432   -4.821256    2.751817
  66 H     1.0000    0     1.008    9.938315   -4.270055    2.195875
  67 C     6.0000    0    12.011    7.668622   -6.980261    4.260964
  68 H     1.0000    0     1.008    9.299905   -8.100054    4.849842
  69 C     6.0000    0    12.011    5.265996   -7.697781    5.041383
  70 H     1.0000    0     1.008    4.997957   -9.353275    6.243937
  71 C     6.0000    0    12.011    3.205408   -6.241905    4.255624
  72 C     6.0000    0    12.011   -0.861689   -4.088523    3.275260
  73 C     6.0000    0    12.011    1.333092    2.447944    2.726429
  74 C     6.0000    0    12.011    3.110145    4.899162    6.471600
  75 C     6.0000    0    12.011    4.390775    3.536836    8.373329
  76 C     6.0000    0    12.011    5.385903    4.931036   10.381982
  77 H     1.0000    0     1.008    6.389319    3.933990   11.886281
  78 C     6.0000    0    12.011    5.114189    7.550148   10.478575
  79 H     1.0000    0     1.008    5.912303    8.601890   12.065612
  80 C     6.0000    0    12.011    3.830707    8.840436    8.573128
  81 H     1.0000    0     1.008    3.619863   10.892395    8.666951
  82 C     6.0000    0    12.011    2.789243    7.545761    6.521959
  83 C     6.0000    0    12.011    4.651393    0.736732    8.191914
  84 H     1.0000    0     1.008    5.616672   -0.042011    9.851089
  85 H     1.0000    0     1.008    5.737071    0.185590    6.503523
  86 H     1.0000    0     1.008    2.799136   -0.198788    8.023571
  87 C     6.0000    0    12.011    1.364936    8.852450    4.470865
  88 H     1.0000    0     1.008    1.411300   10.909608    4.709798
  89 H     1.0000    0     1.008   -0.631014    8.261157    4.447608
  90 H     1.0000    0     1.008    2.130128    8.403181    2.589788
  91 C     6.0000    0    12.011   -1.512149    2.814664   -2.365916
  92 C     6.0000    0    12.011   -3.437147    5.980053   -5.441134
  93 C     6.0000    0    12.011   -3.074605    8.567697   -4.905988
  94 C     6.0000    0    12.011   -4.169622   10.300767   -6.568864
  95 H     1.0000    0     1.008   -3.926624   12.319325   -6.207646
  96 C     6.0000    0    12.011   -5.548633    9.484158   -8.660613
  97 H     1.0000    0     1.008   -6.386568   10.873380   -9.937191
  98 C     6.0000    0    12.011   -5.867851    6.913119   -9.140702
  99 H     1.0000    0     1.008   -6.950252    6.289572  -10.784969
 100 C     6.0000    0    12.011   -4.820026    5.093417   -7.540820
 101 C     6.0000    0    12.011   -1.558778    9.361907   -2.666559
 102 H     1.0000    0     1.008   -2.264117    8.493831   -0.912734
 103 H     1.0000    0     1.008   -1.585584   11.418925   -2.422693
 104 H     1.0000    0     1.008    0.428323    8.770272   -2.854171
 105 C     6.0000    0    12.011   -5.127611    2.327496   -7.979892
 106 H     1.0000    0     1.008   -6.201282    1.950948   -9.710709
 107 H     1.0000    0     1.008   -6.123285    1.414987   -6.396666
 108 H     1.0000    0     1.008   -3.287889    1.366845   -8.140883

--------------------------------
INTERNAL COORDINATES (ANGSTROEM)
--------------------------------
 Ir     0   0   0     0.000000000000     0.00000000     0.00000000
 S      1   0   0     4.549781536078     0.00000000     0.00000000
 S      1   2   0     4.553802251156    80.49110890     0.00000000
 N      1   2   3     2.137744430578    62.05942291   116.26722721
 N      1   2   3     2.138977009555   107.60882824   303.73775021
 N      1   2   3     3.194908661593   155.18059075    69.97225449
 N      1   2   3     3.195091968068    93.55486592   202.94973751
 C      4   1   2     1.386358104708   125.85689361   170.51648855
 C      8   4   1     1.412139107505   120.40361348   341.70244737
 H      9   8   4     1.088444469059   119.51395937   358.72885183
 C      9   8   4     1.382372961813   120.99787114   181.75883310
 H     11   9   8     1.092471754840   119.47787214   178.72205607
 C     11   9   8     1.402454489156   120.31685902   359.67212123
 H     13  11   9     1.091699684259   120.33631647   180.18066771
 C     13  11   9     1.382253628234   119.58856034     1.16505923
 H     15  13  11     1.090692700283   119.12594179   178.54206534
 C     15  13  11     1.410142617447   121.52396843   359.34052950
 C     17  15  13     1.445140140395   122.71230269   180.14900694
 C     18  17  15     1.409861251807   122.60789479     7.86705707
 H     19  18  17     1.090287335560   119.80532089   359.41854907
 C     19  18  17     1.382586860037   121.06188434   178.29604174
 H     21  19  18     1.092135444889   119.76501396   180.45206268
 C     21  19  18     1.402820767986   120.18230066   359.14784215
 H     23  21  19     1.091614634928   120.31432248   182.38935559
 C     23  21  19     1.381535188333   119.90439558     1.29951722
 H     25  23  21     1.089102321794   118.33029621   183.66198290
 C     25  23  21     1.413254566768   121.04462180     0.00000000
 C      4   1   2     1.347429087008   113.12077900   345.72399792
 C      1   2   3     2.074457908341    16.93833799   271.97591022
 C     29   1   2     1.429192673301   135.93533524   170.56840990
 C     30  29   1     1.411882584778   129.65244496     7.70680356
 H     31  30  29     1.091511640407   119.75594564     1.34311816
 C     31  30  29     1.385454024912   120.11771982   179.74779079
 H     33  31  30     1.092800001406   119.72824086   179.77328145
 C     33  31  30     1.406915227449   120.64342834   359.28097967
 H     35  33  31     1.092427859837   119.71063901   179.83825051
 C     35  33  31     1.389727067083   120.95085228   359.03626860
 H     37  35  33     1.092044052797   120.76367019   181.29035914
 C     37  35  33     1.398346320976   118.31802567     1.07481360
 C     29   1   2     1.384397017316   111.87208477   355.29524385
 C      5   1   2     1.386317100475   125.84560386   238.36658173
 C     41   5   1     1.411766253399   120.35872662   340.56407269
 H     42  41   5     1.087879748554   119.48320722   358.03372959
 C     42  41   5     1.382229697801   121.02584637   181.20968612
 H     44  42  41     1.092632081971   119.43376416   178.88352999
 C     44  42  41     1.402638279508   120.27613004   359.87122111
 H     46  44  42     1.091690177401   120.32567368   180.26356536
 C     46  44  42     1.382446340156   119.59506891     1.43330755
 H     48  46  44     1.090674235802   119.16771451   178.21928052
 C     48  46  44     1.410234415702   121.52410772   359.08960347
 C     50  48  46     1.445148717560   122.78455755   179.63995784
 C     51  50  48     1.409760549525   122.59563050     7.98092093
 H     52  51  50     1.090288834779   119.78915109   359.81196358
 C     52  51  50     1.382594481799   121.04355242   178.71628987
 H     54  52  51     1.092126240156   119.76927952   180.42574876
 C     54  52  51     1.402862753886   120.18681103   359.18727658
 H     56  54  52     1.091603205558   120.29464244   182.23894980
 C     56  54  52     1.381527721794   119.92410761     1.17064303
 H     58  56  54     1.089165582079   118.33923338   183.62255131
 C     58  56  54     1.413342750328   121.02897001     0.00000000
 C      5   1   2     1.347025312238   113.20352365    53.61751235
 C      1   2   3     2.076827098974    79.49450466    17.06880571
 C     62   1   2     1.429279398800   135.96067675    82.75714707
 C     63  62   1     1.411834051692   129.67576050     5.68963132
 H     64  63  62     1.091107119253   119.78444441     0.91566508
 C     64  63  62     1.385324694067   120.15023733   179.23151575
 H     66  64  63     1.092769534609   119.71740001   179.79173771
 C     66  64  63     1.406812279278   120.64388909   359.20390669
 H     68  66  64     1.092440164058   119.72205975   179.97219682
 C     68  66  64     1.389682293062   120.93527030   359.23285634
 H     70  68  66     1.092035406292   120.74321694   181.22945072
 C     70  68  66     1.398371372615   118.32802498     1.00001786
 C     62   1   2     1.384031491342   111.94198015   265.55884665
 C      6   1   2     1.174842161044     3.81690816   114.40463322
 C      6   1   2     1.373811354206   176.36887420   316.52840521
 C     75   6  74     1.411279080143   118.16674063   271.57011761
 C     76  75   6     1.396943421235   116.98841441   179.62716924
 H     77  76  75     1.092704386786   118.84801994   180.01591152
 C     77  76  75     1.394349596811   120.92974410   359.94623974
 H     79  77  76     1.092444787015   119.65101042   180.15434508
 C     79  77  76     1.394348755930   120.69469063     0.26728980
 H     81  79  77     1.092695750507   120.23158295   179.76199522
 C     81  79  77     1.396879819930   120.92550056   359.92399118
 C     76  75   6     1.491248541850   120.40251756   359.89130981
 H     84  76  75     1.096185137223   111.41199516   182.51576365
 H     84  76  75     1.101542882109   111.31715826    62.04505059
 H     84  76  75     1.101704757913   111.67975530   303.49323701
 C     83  81  79     1.491404313419   122.51324775   178.90193930
 H     88  83  81     1.096193719773   111.41816102     5.20348422
 H     88  83  81     1.101652814171   111.15971408   245.01007480
 H     88  83  81     1.100613696563   111.84708995   126.31612420
 C      7   1   2     1.174914415834     2.55110647   183.87255720
 C      7   1   2     1.373724993592   179.28309901   107.19938598
 C     93   7  92     1.411397766561   118.14130208    35.51719389
 C     94  93   7     1.396842288843   117.01316921   180.27315959
 H     95  94  93     1.092735338245   118.86735702   179.93155015
 C     95  94  93     1.394453305449   120.90971278   359.82909228
 H     97  95  94     1.092430687676   119.65242267   180.07122594
 C     97  95  94     1.394321657602   120.69157239     0.03081463
 H     99  97  95     1.092724627934   120.21456026   180.04239400
 C     99  97  95     1.396955191082   120.93741477     0.08733936
 C     94  93   7     1.491448669646   120.39252537     0.88350918
 H    102  94  93     1.100759669053   111.71306335   305.81735791
 H    102  94  93     1.096241593016   111.49282235   184.73492860
 H    102  94  93     1.101630084303   111.20312388    64.43459046
 C    101  99  97     1.490900625442   122.61158889   179.69724434
 H    106 101  99     1.096084987875   111.42533473     1.84103809
 H    106 101  99     1.101228251742   111.35529053   241.26409030
 H    106 101  99     1.101571984845   111.63041864   122.72968219

---------------------------
INTERNAL COORDINATES (A.U.)
---------------------------
 Ir     0   0   0     0.000000000000     0.00000000     0.00000000
 S      1   0   0     8.597841072358     0.00000000     0.00000000
 S      1   2   0     8.605439122720    80.49110890     0.00000000
 N      1   2   3     4.039751518107    62.05942291   116.26722721
 N      1   2   3     4.042080754813   107.60882824   303.73775021
 N      1   2   3     6.037502393303   155.18059075    69.97225449
 N      1   2   3     6.037848792339    93.55486592   202.94973751
 C      4   1   2     2.619837141440   125.85689361   170.51648855
 C      8   4   1     2.668556176184   120.40361348   341.70244737
 H      9   8   4     2.056861958504   119.51395937   358.72885183
 C      9   8   4     2.612306312765   120.99787114   181.75883310
 H     11   9   8     2.064472425692   119.47787214   178.72205607
 C     11   9   8     2.650254899794   120.31685902   359.67212123
 H     13  11   9     2.063013423738   120.33631647   180.18066771
 C     13  11   9     2.612080804981   119.58856034     1.16505923
 H     15  13  11     2.061110499801   119.12594179   178.54206534
 C     15  13  11     2.664783356745   121.52396843   359.34052950
 C     17  15  13     2.730919090484   122.71230269   180.14900694
 C     18  17  15     2.664251652743   122.60789479     7.86705707
 H     19  18  17     2.060344471491   119.80532089   359.41854907
 C     19  18  17     2.612710521827   121.06188434   178.29604174
 H     21  19  18     2.063836891988   119.76501396   180.45206268
 C     21  19  18     2.650947066471   120.18230066   359.14784215
 H     23  21  19     2.062852703794   120.31432248   182.38935559
 C     23  21  19     2.610723150324   119.90439558     1.29951722
 H     25  23  21     2.058105120007   118.33029621   183.66198290
 C     25  23  21     2.670664088705   121.04462180     0.00000000
 C      4   1   2     2.546271959324   113.12077900   345.72399792
 C      1   2   3     3.920157323111    16.93833799   271.97591022
 C     29   1   2     2.700782745145   135.93533524   170.56840990
 C     30  29   1     2.668071418484   129.65244496     7.70680356
 H     31  30  29     2.062658072357   119.75594564     1.34311816
 C     31  30  29     2.618128678223   120.11771982   179.74779079
 H     33  31  30     2.065092721807   119.72824086   179.77328145
 C     33  31  30     2.658684473523   120.64342834   359.28097967
 H     35  33  31     2.064389476158   119.71063901   179.83825051
 C     35  33  31     2.626203557684   120.95085228   359.03626860
 H     37  35  33     2.063664185964   120.76367019   181.29035914
 C     37  35  33     2.642491587020   118.31802567     1.07481360
 C     29   1   2     2.616131223345   111.87208477   355.29524385
 C      5   1   2     2.619759654669   125.84560386   238.36658173
 C     41   5   1     2.667851584037   120.35872662   340.56407269
 H     42  41   5     2.055794791407   119.48320722   358.03372959
 C     42  41   5     2.612035583017   121.02584637   181.20968612
 H     44  42  41     2.064775400062   119.43376416   178.88352999
 C     44  42  41     2.650602213224   120.27613004   359.87122111
 H     46  44  42     2.062995458380   120.32567368   180.26356536
 C     46  44  42     2.612444977737   119.59506891     1.43330755
 H     48  46  44     2.061075606990   119.16771451   178.21928052
 C     48  46  44     2.664956830307   121.52410772   359.08960347
 C     50  48  46     2.730935298976   122.78455755   179.63995784
 C     51  50  48     2.664061353009   122.59563050     7.98092093
 H     52  51  50     2.060347304605   119.78915109   359.81196358
 C     52  51  50     2.612724924871   121.04355242   178.71628987
 H     54  52  51     2.063819497564   119.76927952   180.42574876
 C     54  52  51     2.651026408323   120.18681103   359.18727658
 H     56  54  52     2.062831105416   120.29464244   182.23894980
 C     56  54  52     2.610709040611   119.92410761     1.17064303
 H     58  56  54     2.058224664623   118.33923338   183.62255131
 C     58  56  54     2.670830731484   121.02897001     0.00000000
 C      5   1   2     2.545508935590   113.20352365    53.61751235
 C      1   2   3     3.924634444568    79.49450466    17.06880571
 C     62   1   2     2.700946632588   135.96067675    82.75714707
 C     63  62   1     2.667979704243   129.67576050     5.68963132
 H     64  63  62     2.061893638160   119.78444441     0.91566508
 C     64  63  62     2.617884278346   120.15023733   179.23151575
 H     66  64  63     2.065035147903   119.71740001   179.79173771
 C     66  64  63     2.658489929673   120.64388909   359.20390669
 H     68  66  64     2.064412727765   119.72205975   179.97219682
 C     68  66  64     2.626118947047   120.93527030   359.23285634
 H     70  68  66     2.063647846438   120.74321694   181.22945072
 C     70  68  66     2.642538927757   118.32802498     1.00001786
 C     62   1   2     2.615440479359   111.94198015   265.55884665
 C      6   1   2     2.220129934957     3.81690816   114.40463322
 C      6   1   2     2.596127219121   176.36887420   316.52840521
 C     75   6  74     2.666930960002   118.16674063   271.57011761
 C     76  75   6     2.639840490717   116.98841441   179.62716924
 H     77  76  75     2.064912036360   118.84801994   180.01591152
 C     77  76  75     2.634938872916   120.92974410   359.94623974
 H     79  77  76     2.064421463888   119.65101042   180.15434508
 C     79  77  76     2.634937283881   120.69469063     0.26728980
 H     81  79  77     2.064895716159   120.23158295   179.76199522
 C     81  79  77     2.639720301670   120.92550056   359.92399118
 C     76  75   6     2.818051341707   120.40251756   359.89130981
 H     84  76  75     2.071489701427   111.41199516   182.51576365
 H     84  76  75     2.081614371955   111.31715826    62.04505059
 H     84  76  75     2.081920272894   111.67975530   303.49323701
 C     83  81  79     2.818345707311   122.51324775   178.90193930
 H     88  83  81     2.071505920096   111.41816102     5.20348422
 H     88  83  81     2.081822113447   111.15971408   245.01007480
 H     88  83  81     2.079858465747   111.84708995   126.31612420
 C      7   1   2     2.220266476722     2.55110647   183.87255720
 C      7   1   2     2.595964021212   179.28309901   107.19938598
 C     93   7  92     2.667155244829   118.14130208    35.51719389
 C     94  93   7     2.639649378194   117.01316921   180.27315959
 H     95  94  93     2.064970526141   118.86735702   179.93155015
 C     95  94  93     2.635134853840   120.90971278   359.82909228
 H     97  95  94     2.064394820000   119.65242267   180.07122594
 C     97  95  94     2.634886075463   120.69157239     0.03081463
 H     99  97  95     2.064950286587   120.21456026   180.04239400
 C     99  97  95     2.639862732505   120.93741477     0.08733936
 C     94  93   7     2.818429528433   120.39252537     0.88350918
 H    102  94  93     2.080134313775   111.71306335   305.81735791
 H    102  94  93     2.071596387414   111.49282235   184.73492860
 H    102  94  93     2.081779160221   111.20312388    64.43459046
 C    101  99  97     2.817393874976   122.61158889   179.69724434
 H    106 101  99     2.071300446587   111.42533473     1.84103809
 H    106 101  99     2.081019806729   111.35529053   241.26409030
 H    106 101  99     2.081669368157   111.63041864   122.72968219

---------------------
BASIS SET INFORMATION
---------------------
There are 5 groups of distinct atoms

 Group   1 Type Ir  : 22s15p11d6f contracted to 17s11p8d3f pattern {61111111111111111/51111111111/41111111/411}
 Group   2 Type S   : 10s7p1d contracted to 6s3p1d pattern {511111/511/1}
 Group   3 Type N   : 7s4p1d contracted to 3s2p1d pattern {511/31/1}
 Group   4 Type C   : 7s4p1d contracted to 3s2p1d pattern {511/31/1}
 Group   5 Type H   : 4s1p contracted to 2s1p pattern {31/1}

Atom   0Ir   basis set group =>   1
Atom   1S    basis set group =>   2
Atom   2S    basis set group =>   2
Atom   3N    basis set group =>   3
Atom   4N    basis set group =>   3
Atom   5N    basis set group =>   3
Atom   6N    basis set group =>   3
Atom   7C    basis set group =>   4
Atom   8C    basis set group =>   4
Atom   9H    basis set group =>   5
Atom  10C    basis set group =>   4
Atom  11H    basis set group =>   5
Atom  12C    basis set group =>   4
Atom  13H    basis set group =>   5
Atom  14C    basis set group =>   4
Atom  15H    basis set group =>   5
Atom  16C    basis set group =>   4
Atom  17C    basis set group =>   4
Atom  18C    basis set group =>   4
Atom  19H    basis set group =>   5
Atom  20C    basis set group =>   4
Atom  21H    basis set group =>   5
Atom  22C    basis set group =>   4
Atom  23H    basis set group =>   5
Atom  24C    basis set group =>   4
Atom  25H    basis set group =>   5
Atom  26C    basis set group =>   4
Atom  27C    basis set group =>   4
Atom  28C    basis set group =>   4
Atom  29C    basis set group =>   4
Atom  30C    basis set group =>   4
Atom  31H    basis set group =>   5
Atom  32C    basis set group =>   4
Atom  33H    basis set group =>   5
Atom  34C    basis set group =>   4
Atom  35H    basis set group =>   5
Atom  36C    basis set group =>   4
Atom  37H    basis set group =>   5
Atom  38C    basis set group =>   4
Atom  39C    basis set group =>   4
Atom  40C    basis set group =>   4
Atom  41C    basis set group =>   4
Atom  42H    basis set group =>   5
Atom  43C    basis set group =>   4
Atom  44H    basis set group =>   5
Atom  45C    basis set group =>   4
Atom  46H    basis set group =>   5
Atom  47C    basis set group =>   4
Atom  48H    basis set group =>   5
Atom  49C    basis set group =>   4
Atom  50C    basis set group =>   4
Atom  51C    basis set group =>   4
Atom  52H    basis set group =>   5
Atom  53C    basis set group =>   4
Atom  54H    basis set group =>   5
Atom  55C    basis set group =>   4
Atom  56H    basis set group =>   5
Atom  57C    basis set group =>   4
Atom  58H    basis set group =>   5
Atom  59C    basis set group =>   4
Atom  60C    basis set group =>   4
Atom  61C    basis set group =>   4
Atom  62C    basis set group =>   4
Atom  63C    basis set group =>   4
Atom  64H    basis set group =>   5
Atom  65C    basis set group =>   4
Atom  66H    basis set group =>   5
Atom  67C    basis set group =>   4
Atom  68H    basis set group =>   5
Atom  69C    basis set group =>   4
Atom  70H    basis set group =>   5
Atom  71C    basis set group =>   4
Atom  72C    basis set group =>   4
Atom  73C    basis set group =>   4
Atom  74C    basis set group =>   4
Atom  75C    basis set group =>   4
Atom  76C    basis set group =>   4
Atom  77H    basis set group =>   5
Atom  78C    basis set group =>   4
Atom  79H    basis set group =>   5
Atom  80C    basis set group =>   4
Atom  81H    basis set group =>   5
Atom  82C    basis set group =>   4
Atom  83C    basis set group =>   4
Atom  84H    basis set group =>   5
Atom  85H    basis set group =>   5
Atom  86H    basis set group =>   5
Atom  87C    basis set group =>   4
Atom  88H    basis set group =>   5
Atom  89H    basis set group =>   5
Atom  90H    basis set group =>   5
Atom  91C    basis set group =>   4
Atom  92C    basis set group =>   4
Atom  93C    basis set group =>   4
Atom  94C    basis set group =>   4
Atom  95H    basis set group =>   5
Atom  96C    basis set group =>   4
Atom  97H    basis set group =>   5
Atom  98C    basis set group =>   4
Atom  99H    basis set group =>   5
Atom 100C    basis set group =>   4
Atom 101C    basis set group =>   4
Atom 102H    basis set group =>   5
Atom 103H    basis set group =>   5
Atom 104H    basis set group =>   5
Atom 105C    basis set group =>   4
Atom 106H    basis set group =>   5
Atom 107H    basis set group =>   5
Atom 108H    basis set group =>   5
---------------------------------
AUXILIARY/J BASIS SET INFORMATION
---------------------------------
There are 5 groups of distinct atoms

 Group   1 Type Ir  : 30s10p8d6f5g contracted to 30s10p8d6f5g pattern {111111111111111111111111111111/1111111111/11111111/111111/11111}
 Group   2 Type S   : 14s5p5d2f1g contracted to 14s5p5d2f1g pattern {11111111111111/11111/11111/11/1}
 Group   3 Type N   : 12s5p4d2f1g contracted to 12s5p4d2f1g pattern {111111111111/11111/1111/11/1}
 Group   4 Type C   : 12s5p4d2f1g contracted to 12s5p4d2f1g pattern {111111111111/11111/1111/11/1}
 Group   5 Type H   : 5s2p1d contracted to 5s2p1d pattern {11111/11/1}

Atom   0Ir   basis set group =>   1
Atom   1S    basis set group =>   2
Atom   2S    basis set group =>   2
Atom   3N    basis set group =>   3
Atom   4N    basis set group =>   3
Atom   5N    basis set group =>   3
Atom   6N    basis set group =>   3
Atom   7C    basis set group =>   4
Atom   8C    basis set group =>   4
Atom   9H    basis set group =>   5
Atom  10C    basis set group =>   4
Atom  11H    basis set group =>   5
Atom  12C    basis set group =>   4
Atom  13H    basis set group =>   5
Atom  14C    basis set group =>   4
Atom  15H    basis set group =>   5
Atom  16C    basis set group =>   4
Atom  17C    basis set group =>   4
Atom  18C    basis set group =>   4
Atom  19H    basis set group =>   5
Atom  20C    basis set group =>   4
Atom  21H    basis set group =>   5
Atom  22C    basis set group =>   4
Atom  23H    basis set group =>   5
Atom  24C    basis set group =>   4
Atom  25H    basis set group =>   5
Atom  26C    basis set group =>   4
Atom  27C    basis set group =>   4
Atom  28C    basis set group =>   4
Atom  29C    basis set group =>   4
Atom  30C    basis set group =>   4
Atom  31H    basis set group =>   5
Atom  32C    basis set group =>   4
Atom  33H    basis set group =>   5
Atom  34C    basis set group =>   4
Atom  35H    basis set group =>   5
Atom  36C    basis set group =>   4
Atom  37H    basis set group =>   5
Atom  38C    basis set group =>   4
Atom  39C    basis set group =>   4
Atom  40C    basis set group =>   4
Atom  41C    basis set group =>   4
Atom  42H    basis set group =>   5
Atom  43C    basis set group =>   4
Atom  44H    basis set group =>   5
Atom  45C    basis set group =>   4
Atom  46H    basis set group =>   5
Atom  47C    basis set group =>   4
Atom  48H    basis set group =>   5
Atom  49C    basis set group =>   4
Atom  50C    basis set group =>   4
Atom  51C    basis set group =>   4
Atom  52H    basis set group =>   5
Atom  53C    basis set group =>   4
Atom  54H    basis set group =>   5
Atom  55C    basis set group =>   4
Atom  56H    basis set group =>   5
Atom  57C    basis set group =>   4
Atom  58H    basis set group =>   5
Atom  59C    basis set group =>   4
Atom  60C    basis set group =>   4
Atom  61C    basis set group =>   4
Atom  62C    basis set group =>   4
Atom  63C    basis set group =>   4
Atom  64H    basis set group =>   5
Atom  65C    basis set group =>   4
Atom  66H    basis set group =>   5
Atom  67C    basis set group =>   4
Atom  68H    basis set group =>   5
Atom  69C    basis set group =>   4
Atom  70H    basis set group =>   5
Atom  71C    basis set group =>   4
Atom  72C    basis set group =>   4
Atom  73C    basis set group =>   4
Atom  74C    basis set group =>   4
Atom  75C    basis set group =>   4
Atom  76C    basis set group =>   4
Atom  77H    basis set group =>   5
Atom  78C    basis set group =>   4
Atom  79H    basis set group =>   5
Atom  80C    basis set group =>   4
Atom  81H    basis set group =>   5
Atom  82C    basis set group =>   4
Atom  83C    basis set group =>   4
Atom  84H    basis set group =>   5
Atom  85H    basis set group =>   5
Atom  86H    basis set group =>   5
Atom  87C    basis set group =>   4
Atom  88H    basis set group =>   5
Atom  89H    basis set group =>   5
Atom  90H    basis set group =>   5
Atom  91C    basis set group =>   4
Atom  92C    basis set group =>   4
Atom  93C    basis set group =>   4
Atom  94C    basis set group =>   4
Atom  95H    basis set group =>   5
Atom  96C    basis set group =>   4
Atom  97H    basis set group =>   5
Atom  98C    basis set group =>   4
Atom  99H    basis set group =>   5
Atom 100C    basis set group =>   4
Atom 101C    basis set group =>   4
Atom 102H    basis set group =>   5
Atom 103H    basis set group =>   5
Atom 104H    basis set group =>   5
Atom 105C    basis set group =>   4
Atom 106H    basis set group =>   5
Atom 107H    basis set group =>   5
Atom 108H    basis set group =>   5


           ************************************************************
           *        Program running with 8 parallel MPI-processes     *
           *              working on a common directory               *
           ************************************************************
------------------------------------------------------------------------------
                           ORCA GTO INTEGRAL CALCULATION
                           -- RI-GTO INTEGRALS CHOSEN --
------------------------------------------------------------------------------
------------------------------------------------------------------------------
                   ___                                                        
                  /   \      - P O W E R E D   B Y -                         
                 /     \                                                     
                 |  |  |   _    _      __       _____    __    __             
                 |  |  |  | |  | |    /  \     |  _  \  |  |  /  |          
                  \  \/   | |  | |   /    \    | | | |  |  | /  /          
                 / \  \   | |__| |  /  /\  \   | |_| |  |  |/  /          
                |  |  |   |  __  | /  /__\  \  |    /   |      \           
                |  |  |   | |  | | |   __   |  |    \   |  |\   \          
                \     /   | |  | | |  |  |  |  | |\  \  |  | \   \       
                 \___/    |_|  |_| |__|  |__|  |_| \__\ |__|  \__/        
                                                                              
                      - O R C A' S   B I G   F R I E N D -                    
                                      &                                       
                       - I N T E G R A L  F E E D E R -                       
                                                                              
 v1 FN, 2020, v2 2021                                                         
------------------------------------------------------------------------------


Reading SHARK input file Ir_isoCN_5_SOC-M06L_def2SVP.SHARKINP.tmp ... ok
----------------------
SHARK INTEGRAL PACKAGE
----------------------

Number of atoms                             ...    109
Number of basis functions                   ...   1257
Number of shells                            ...    569
Maximum angular momentum                    ...      3
Integral batch strategy                     ... SHARK/LIBINT Hybrid
RI-J (if used) integral strategy            ... SPLIT-RIJ (Revised 2003 algorithm where possible)
Printlevel                                  ...      1
Contraction scheme used                     ... SEGMENTED contraction
Coulomb Range Separation                    ... NOT USED
Exchange Range Separation                   ... NOT USED
Finite Nucleus Model                        ... NOT USED
Auxiliary Coulomb fitting basis             ... AVAILABLE
   # of basis functions in Aux-J            ...   5493
   # of shells in Aux-J                     ...   1985
   Maximum angular momentum in Aux-J        ...      4
Auxiliary J/K fitting basis                 ... NOT available
Auxiliary Correlation fitting basis         ... NOT available
Auxiliary 'external' fitting basis          ... NOT available
Integral threshold                          ...     1.000000e-10
Primitive cut-off                           ...     1.000000e-11
Primitive pair pre-selection threshold      ...     1.000000e-11

Calculating pre-screening integrals         ... done (  0.1 sec) Dimension = 569
Organizing shell pair data                  ... done (  0.3 sec)
Shell pair information
Total number of shell pairs                 ...    162165
Shell pairs after pre-screening             ...     78612
Total number of primitive shell pairs       ...    571881
Primitive shell pairs kept                  ...    154348
          la=0 lb=0:  22915 shell pairs
          la=1 lb=0:  29031 shell pairs
          la=1 lb=1:   9331 shell pairs
          la=2 lb=0:   9380 shell pairs
          la=2 lb=1:   6006 shell pairs
          la=2 lb=2:    846 shell pairs
          la=3 lb=0:    601 shell pairs
          la=3 lb=1:    370 shell pairs
          la=3 lb=2:    126 shell pairs
          la=3 lb=3:      6 shell pairs

Calculating one electron integrals          ... done (  0.3 sec)
Calculating RI/J V-Matrix + Cholesky decomp.... done (  2.5 sec)
Calculating Nuclear repulsion               ... done (  0.0 sec) ENN=  14775.685928122159 Eh

SHARK setup successfully completed in   5.1 seconds

Maximum memory used throughout the entire GTOINT-calculation: 183.5 MB


           ************************************************************
           *        Program running with 8 parallel MPI-processes     *
           *              working on a common directory               *
           ************************************************************
------------------------------------------------------------------------------
                          ORCA RELATIVISTIC HAMILTONIAN
------------------------------------------------------------------------------

Relativistic Method            ... ZORA(MP)
Treatment of potential         ... Van Wuellen
Nucleus model                  ... Point Nucleus
Speed of light used            ... 137.03598950000000


            *************************************************
            *         ZERO ORDER REGULAR APPROXIMATION      *
            *                     ZORA(MP)                  *
            *            Programmed by FN according to      *
            *                   C. van Wuellen              *
            *       J. Chem. Phys. (1998) vol 109, 392-399  *
            *************************************************

Terms included in model potential: +V(e,N)+V(C)+V(Xa)+V(VWN-V)
Basis function cutoff value   ... 1.000000e-10
Loading the fitted atomic densities (ZORA)   ... done
Calculating the cutoffs                      ... done
Number of fit functions                      ... 975
Setting up the integration grid ... done

Maximum memory used throughout the entire REL-calculation: 408.0 MB


           ************************************************************
           *        Program running with 8 parallel MPI-processes     *
           *              working on a common directory               *
           ************************************************************
-------------------------------------------------------------------------------
                                 ORCA SCF
-------------------------------------------------------------------------------

------------
SCF SETTINGS
------------
Hamiltonian:
 Density Functional     Method          .... DFT(GTOs)
 Exchange Functional    Exchange        .... M06L
 Correlation Functional Correlation     .... M06L
 Gradients option       PostSCFGGA      .... off
   Density functional embedding theory  .... OFF
 RI-approximation to the Coulomb term is turned on
   Number of AuxJ basis functions       .... 5493

Relativistic Settings:
 Scalar relativistic method             .... ZORA
 Speed of light used       Velit        ....       137.035989
Orbital energies will be scaled


General Settings:
 Integral files         IntName         .... Ir_isoCN_5_SOC-M06L_def2SVP
 Hartree-Fock type      HFTyp           .... RHF
 Total Charge           Charge          ....    1
 Multiplicity           Mult            ....    1
 Number of Electrons    NEL             ....  538
 Basis Dimension        Dim             .... 1257
 Nuclear Repulsion      ENuc            ....  14775.6859281222 Eh

Convergence Acceleration:
 DIIS                   CNVDIIS         .... on
   Start iteration      DIISMaxIt       ....    12
   Startup error        DIISStart       ....  0.200000
   # of expansion vecs  DIISMaxEq       ....     5
   Bias factor          DIISBfac        ....   1.050
   Max. coefficient     DIISMaxC        ....  10.000
 Trust-Rad. Augm. Hess. CNVTRAH         .... auto
   Auto Start mean grad. ratio tolernc. ....  1.125000
   Auto Start start iteration           ....    20
   Auto Start num. interpolation iter.  ....    10
   Max. Number of Micro iterations      ....    16
   Max. Number of Macro iterations      .... Maxiter - #DIIS iter
   Number of Davidson start vectors     ....     2
   Converg. threshold I  (grad. norm)   ....   5.000e-05
   Converg. threshold II (energy diff.) ....   1.000e-06
   Grad. Scal. Fac. for Micro threshold ....   0.100
   Minimum threshold for Micro iter.    ....   0.010
   NR start threshold (gradient norm)   ....   0.001
   Initial trust radius                 ....   0.400
   Minimum AH scaling param. (alpha)    ....   1.000
   Maximum AH scaling param. (alpha)    .... 1000.000
   Orbital update algorithm             .... Taylor
   White noise on init. David. guess    .... on
   Maximum white noise                  ....   0.010
   Quad. conv. algorithm                .... NR
 SOSCF                  CNVSOSCF        .... off
 Level Shifting         CNVShift        .... on
   Level shift para.    LevelShift      ....    0.2500
   Turn off err/grad.   ShiftErr        ....    0.0010
 Zerner damping         CNVZerner       .... off
 Static damping         CNVDamp         .... on
   Fraction old density DampFac         ....    0.7000
   Max. Damping (<1)    DampMax         ....    0.9800
   Min. Damping (>=0)   DampMin         ....    0.0000
   Turn off err/grad.   DampErr         ....    0.1000
 Fernandez-Rico         CNVRico         .... off

SCF Procedure:
 Maximum # iterations   MaxIter         ....   125
 SCF integral mode      SCFMode         .... Direct
   Integral package                     .... SHARK and LIBINT hybrid scheme
 Reset frequency        DirectResetFreq ....    20
 Integral Threshold     Thresh          ....  1.000e-10 Eh
 Primitive CutOff       TCut            ....  1.000e-11 Eh

Convergence Tolerance:
 Convergence Check Mode ConvCheckMode   .... Total+1el-Energy
 Convergence forced     ConvForced      .... 1
 Energy Change          TolE            ....  1.000e-06 Eh
 1-El. energy change                    ....  1.000e-03 Eh
 DIIS Error             TolErr          ....  1.000e-06


Diagonalization of the overlap matrix:
Smallest eigenvalue                        ... 1.985e-04
Time for diagonalization                   ...    0.242 sec
Threshold for overlap eigenvalues          ... 1.000e-08
Number of eigenvalues below threshold      ... 0
Time for construction of square roots      ...    0.198 sec
Total time needed                          ...    0.445 sec

Time for model grid setup =    1.413 sec

------------------------------
INITIAL GUESS: MODEL POTENTIAL
------------------------------
Loading ZORA relativistic densities                ... done
Calculating cut-offs                               ... done
Initializing the effective Hamiltonian             ... done
Setting up the integral package (SHARK)            ... done
Starting the Coulomb interaction                   ... done (   1.7 sec)
Reading the grid                                   ... done
Mapping shells                                     ... done
Starting the XC term evaluation                    ... done (   0.5 sec)
  promolecular density results
     # of electrons  =    538.984903893
     EX              =   -742.716250091
     EC              =    -20.454326813
     EX+EC           =   -763.170576904
Transforming the Hamiltonian                       ... done (   0.1 sec)
Diagonalizing the Hamiltonian                      ... done (   0.2 sec)
Back transforming the eigenvectors                 ... done (   0.1 sec)
Now organizing SCF variables                       ... done
                      ------------------
                      INITIAL GUESS DONE (   4.0 sec)
                      ------------------
-------------------
DFT GRID GENERATION
-------------------

General Integration Accuracy     IntAcc      ... 4.959
Radial Grid Type                 RadialGrid  ... OptM3 with GC (2021)
Angular Grid (max. ang.)         AngularGrid ... 6 (Lebedev-590)
Angular grid pruning method      GridPruning ... 4 (adaptive)
Weight generation scheme         WeightScheme... Becke
Basis function cutoff            BFCut       ... 1.0000e-10
Integration weight cutoff        WCut        ... 1.0000e-14
Angular grids for H and He will be reduced by one unit
Partially contracted basis set               ... off
Rotationally invariant grid construction     ... off

Total number of grid points                  ...  1335070
Total number of batches                      ...    20916
Average number of points per batch           ...       63
Average number of grid points per atom       ...    12248
Time for grid setup =   20.098 sec


--------------------
CPCM SOLVATION MODEL
--------------------
CPCM parameters:
  Epsilon                                         ...      35.6880
  Refrac                                          ...       1.3442
  Rsolv                                           ...       1.3000
  Surface type                                    ... GAUSSIAN VDW
  Epsilon function type                           ...         CPCM
Solvent:                                     ... ACETONITRILE
SMD-CDS solvent descriptors:
  Soln                                       ...    1.3442
  Soln25                                     ...    1.3416
  Sola                                       ...    0.0700
  Solb                                       ...    0.3200
  Solg                                       ...   41.2500
  Solc                                       ...    0.0000
  Solh                                       ...    0.0000
Radii:
 Radius for Ir used is    3.8172 Bohr (=   2.0200 Ang.)
 Radius for S  used is    4.7054 Bohr (=   2.4900 Ang.)
 Radius for N  used is    3.5716 Bohr (=   1.8900 Ang.)
 Radius for C  used is    3.4960 Bohr (=   1.8500 Ang.)
 Radius for H  used is    2.2677 Bohr (=   1.2000 Ang.)
Calculating surface                               ...        done! (  0.0s)
GEPOL surface points                              ...         5975
GEPOL Volume                                      ...    6268.9545
GEPOL Surface-area                                ...    3108.1183
Calculating surface distance matrix               ...        done! (  0.2s)
Performing Cholesky decomposition & store         ...        done! (  1.8s)
Overall time for CPCM initialization              ...                 2.0s
--------------
SCF ITERATIONS
--------------
ITER       Energy         Delta-E        Max-DP      RMS-DP      [F,P]     Damp
               ***  Starting incremental Fock matrix formation  ***
  0 -21744.8234477184   0.000000000000 0.06765868  0.00097055  5.5573699 0.7000
  1 -21745.3871364910  -0.563688772552 0.04385082  0.00065887  3.8871203 0.7000
  2 -21745.5955732994  -0.208436808458 0.03215825  0.00038561  2.7182267 0.7000
  3 -21745.7238622512  -0.128288951717 0.02522851  0.00024098  1.9006175 0.7000
  4 -21745.8132979977  -0.089435746548 0.02052964  0.00016468  1.3289689 0.7000
  5 -21745.8766260783  -0.063328080578 0.01325541  0.00011626  0.9292942 0.7000
  6 -21745.9210232951  -0.044397216872 0.00796004  0.00008046  0.6498135 0.7000
  7 -21745.9519996395  -0.030976344347 0.00546765  0.00005567  0.4543692 0.7000
  8 -21745.9736857750  -0.021686135504 0.00380997  0.00003894  0.3177022 0.7000
  9 -21745.9888668580  -0.015181082992 0.00267383  0.00002743  0.2221433 0.7000
                               ***Turning on DIIS***
 10 -21745.9994933656  -0.010626507599 0.00187816  0.00001942  0.1553281 0.7000
 11 -21746.0069321748  -0.007438809254 0.00133430  0.00001402  0.1086097 0.7000
 12 -21746.0121391904  -0.005207015522 0.00321380  0.00003376  0.0759961 0.0000
 13 -21746.0242941926  -0.012155002209 0.00029148  0.00000183  0.0001003 0.0000
 14 -21746.0242931544   0.000001038166 0.00012405  0.00000083  0.0003174 0.0000
 15 -21746.0242937492  -0.000000594806 0.00006886  0.00000045  0.0000884 0.0000
 16 -21746.0242937023   0.000000046930 0.00003926  0.00000039  0.0000273 0.0000
 17 -21746.0242935094   0.000000192871 0.00003469  0.00000022  0.0000151 0.0000
                 **** Energy Check signals convergence ****

               *****************************************************
               *                     SUCCESS                       *
               *           SCF CONVERGED AFTER  18 CYCLES          *
               *****************************************************


SMD CDS free energy correction energy :               -13.26021     Kcal/mol
Total Energy after SMD CDS correction =            -21746.045424778 Eh

----------------
TOTAL SCF ENERGY
----------------

Total Energy       :       -21746.04542478 Eh         -591739.97949 eV

Components:
Nuclear Repulsion  :        14775.68592812 Eh          402066.85479 eV
Electronic Energy  :       -36521.73135290 Eh         -993806.83428 eV
One Electron Energy:       -58981.17413124 Eh        -1604959.34267 eV
Two Electron Energy:        22459.44277834 Eh          611152.50839 eV
CPCM Dielectric    :           -0.07620135 Eh              -2.07354 eV
SMD CDS (Gcds)     :           -0.02113149 Eh              -0.57502 eV

Virial components:
Potential Energy   :       -45568.48281331 Eh        -1239981.45679 eV
Kinetic Energy     :        23822.43738853 Eh          648241.47730 eV
Virial Ratio       :            1.91283881


DFT components:
N(Alpha)           :      268.999994008622 electrons
N(Beta)            :      268.999994008622 electrons
N(Total)           :      537.999988017244 electrons
E(XC)              :     -772.289400617973 Eh       
DFET-embed. en.    :        0.000000000000 Eh       
CPCM Solvation Model Properties:
Surface-charge          :           -1.06943976
Charge-correction       :            0.00549165 Eh               0.14944 eV
Free-energy (cav+disp)  :           -0.02113149 Eh              -0.57502 eV

---------------
SCF CONVERGENCE
---------------

  Last Energy change         ...    2.1854e-07  Tolerance :   1.0000e-06
  Last MAX-Density change    ...    3.0400e-05  Tolerance :   1.0000e-05
  Last RMS-Density change    ...    2.0454e-07  Tolerance :   1.0000e-06
  Last DIIS Error            ...    4.8733e-06  Tolerance :   1.0000e-06

             **** THE GBW FILE WAS UPDATED (Ir_isoCN_5_SOC-M06L_def2SVP.gbw) ****
             **** DENSITY Ir_isoCN_5_SOC-M06L_def2SVP.scfp WAS UPDATED ****
             **** ENERGY FILE WAS UPDATED (Ir_isoCN_5_SOC-M06L_def2SVP.en.tmp) ****
             **** THE GBW FILE WAS UPDATED (Ir_isoCN_5_SOC-M06L_def2SVP.gbw) ****
             **** DENSITY Ir_isoCN_5_SOC-M06L_def2SVP.scfp WAS UPDATED ****
----------------
ORBITAL ENERGIES
----------------

  NO   OCC          E(Eh)            E(eV) 
   0   2.0000   -3053.339618    -83085.5950 
   1   2.0000    -499.815635    -13600.6749 
   2   2.0000    -433.316341    -11791.1371 
   3   2.0000    -433.315937    -11791.1261 
   4   2.0000    -433.315773    -11791.1216 
   5   2.0000    -116.039293     -3157.5897 
   6   2.0000     -96.841896     -2635.2020 
   7   2.0000     -96.840924     -2635.1755 
   8   2.0000     -96.840411     -2635.1616 
   9   2.0000     -89.121250     -2425.1125 
  10   2.0000     -89.121188     -2425.1108 
  11   2.0000     -75.808309     -2062.8490 
  12   2.0000     -75.807835     -2062.8361 
  13   2.0000     -75.807483     -2062.8265 
  14   2.0000     -75.806566     -2062.8015 
  15   2.0000     -75.806137     -2062.7899 
  16   2.0000     -24.965681      -679.3507 
  17   2.0000     -18.660308      -507.7728 
  18   2.0000     -18.657255      -507.6897 
  19   2.0000     -18.656656      -507.6734 
  20   2.0000     -14.255348      -387.9077 
  21   2.0000     -14.254894      -387.8954 
  22   2.0000     -14.247086      -387.6829 
  23   2.0000     -14.246951      -387.6793 
  24   2.0000     -10.911892      -296.9277 
  25   2.0000     -10.910323      -296.8850 
  26   2.0000     -10.904608      -296.7295 
  27   2.0000     -10.901757      -296.6519 
  28   2.0000     -10.901239      -296.6378 
  29   2.0000     -10.144514      -276.0463 
  30   2.0000     -10.144168      -276.0368 
  31   2.0000     -10.142349      -275.9873 
  32   2.0000     -10.141978      -275.9773 
  33   2.0000     -10.124608      -275.5046 
  34   2.0000     -10.124329      -275.4970 
  35   2.0000     -10.122583      -275.4495 
  36   2.0000     -10.122495      -275.4471 
  37   2.0000     -10.099953      -274.8337 
  38   2.0000     -10.099939      -274.8333 
  39   2.0000     -10.096186      -274.7312 
  40   2.0000     -10.096162      -274.7305 
  41   2.0000     -10.096096      -274.7287 
  42   2.0000     -10.095987      -274.7258 
  43   2.0000     -10.095939      -274.7245 
  44   2.0000     -10.095741      -274.7191 
  45   2.0000     -10.090356      -274.5725 
  46   2.0000     -10.090161      -274.5672 
  47   2.0000     -10.088676      -274.5268 
  48   2.0000     -10.088562      -274.5237 
  49   2.0000     -10.088525      -274.5227 
  50   2.0000     -10.088195      -274.5137 
  51   2.0000     -10.081458      -274.3304 
  52   2.0000     -10.081300      -274.3261 
  53   2.0000     -10.079150      -274.2676 
  54   2.0000     -10.079024      -274.2642 
  55   2.0000     -10.078437      -274.2482 
  56   2.0000     -10.078246      -274.2430 
  57   2.0000     -10.076145      -274.1859 
  58   2.0000     -10.075991      -274.1817 
  59   2.0000     -10.075478      -274.1677 
  60   2.0000     -10.075343      -274.1640 
  61   2.0000     -10.075031      -274.1555 
  62   2.0000     -10.074956      -274.1535 
  63   2.0000     -10.074891      -274.1517 
  64   2.0000     -10.074883      -274.1515 
  65   2.0000     -10.074704      -274.1466 
  66   2.0000     -10.074699      -274.1465 
  67   2.0000     -10.073826      -274.1228 
  68   2.0000     -10.073813      -274.1224 
  69   2.0000     -10.073121      -274.1035 
  70   2.0000     -10.072836      -274.0958 
  71   2.0000     -10.071970      -274.0722 
  72   2.0000     -10.071958      -274.0719 
  73   2.0000     -10.071738      -274.0659 
  74   2.0000     -10.071656      -274.0637 
  75   2.0000     -10.071582      -274.0617 
  76   2.0000     -10.071417      -274.0572 
  77   2.0000     -10.070619      -274.0355 
  78   2.0000     -10.070509      -274.0325 
  79   2.0000     -10.067687      -273.9557 
  80   2.0000     -10.067612      -273.9536 
  81   2.0000     -10.067563      -273.9523 
  82   2.0000     -10.067551      -273.9520 
  83   2.0000     -10.067431      -273.9487 
  84   2.0000     -10.067408      -273.9481 
  85   2.0000     -10.061082      -273.7760 
  86   2.0000     -10.060901      -273.7710 
  87   2.0000     -10.060381      -273.7569 
  88   2.0000     -10.060033      -273.7474 
  89   2.0000      -7.982463      -217.2139 
  90   2.0000      -7.982400      -217.2122 
  91   2.0000      -5.849826      -159.1819 
  92   2.0000      -5.849770      -159.1803 
  93   2.0000      -5.845929      -159.0758 
  94   2.0000      -5.845870      -159.0742 
  95   2.0000      -5.840390      -158.9251 
  96   2.0000      -5.840318      -158.9231 
  97   2.0000      -3.639267       -99.0295 
  98   2.0000      -2.330770       -63.4235 
  99   2.0000      -2.329904       -63.3999 
 100   2.0000      -2.329616       -63.3921 
 101   2.0000      -2.327419       -63.3323 
 102   2.0000      -2.327184       -63.3259 
 103   2.0000      -2.323507       -63.2259 
 104   2.0000      -2.321357       -63.1673 
 105   2.0000      -2.038623       -55.4738 
 106   2.0000      -2.029885       -55.2360 
 107   2.0000      -2.029646       -55.2295 
 108   2.0000      -0.943834       -25.6830 
 109   2.0000      -0.942968       -25.6595 
 110   2.0000      -0.940868       -25.6023 
 111   2.0000      -0.938681       -25.5428 
 112   2.0000      -0.859168       -23.3792 
 113   2.0000      -0.858109       -23.3503 
 114   2.0000      -0.837571       -22.7915 
 115   2.0000      -0.836941       -22.7743 
 116   2.0000      -0.831137       -22.6164 
 117   2.0000      -0.830860       -22.6088 
 118   2.0000      -0.824911       -22.4470 
 119   2.0000      -0.824526       -22.4365 
 120   2.0000      -0.795147       -21.6370 
 121   2.0000      -0.794307       -21.6142 
 122   2.0000      -0.756520       -20.5859 
 123   2.0000      -0.756046       -20.5730 
 124   2.0000      -0.755959       -20.5707 
 125   2.0000      -0.755779       -20.5658 
 126   2.0000      -0.750413       -20.4198 
 127   2.0000      -0.750227       -20.4147 
[...]
   0  85   25821.0    387.3      0.04111 ( -0.00003,  0.00154) (  0.00005, -0.00267) (  0.00007, -0.00355)
   0  86   25844.5    386.9      0.10744 ( -0.00083, -0.00036) ( -0.00034, -0.00015) ( -0.00499, -0.00218)
   0  87   25851.1    386.8     -0.01903 (  0.00016, -0.00039) (  0.00046, -0.00114) (  0.00187, -0.00467)
   0  88   25941.1    385.5     -1.25924 (  0.01504, -0.00550) ( -0.00060,  0.00022) (  0.01115, -0.00408)
   0  89   25990.0    384.8     -0.04801 ( -0.00023, -0.00420) ( -0.00013, -0.00242) ( -0.00040, -0.00711)
   0  90   25993.9    384.7      0.14062 (  0.00734,  0.00836) (  0.00040,  0.00046) (  0.01838,  0.02094)
   0  91   26041.4    384.0      0.24842 ( -0.00135, -0.00720) ( -0.00092, -0.00489) ( -0.00123, -0.00655)
   0  92   26076.1    383.5     -2.09774 (  0.01883, -0.02476) (  0.00035, -0.00046) ( -0.00020,  0.00027)
   0  93   26096.0    383.2     -0.10864 (  0.00039, -0.00030) (  0.00292, -0.00221) ( -0.00003,  0.00002)
   0  94   26102.7    383.1      1.14754 (  0.02536,  0.00091) (  0.00039,  0.00001) (  0.00226,  0.00008)
   0  95   26174.9    382.0     -5.34219 (  0.01425, -0.00805) (  0.00053, -0.00030) ( -0.02476,  0.01398)
   0  96   26232.4    381.2      0.35363 ( -0.00007, -0.00031) (  0.00698,  0.03002) ( -0.00039, -0.00167)
   0  97   26259.2    380.8     -0.05384 ( -0.00009,  0.00110) ( -0.00017,  0.00212) (  0.00040, -0.00495)
   0  98   26263.6    380.8      1.27915 ( -0.01214,  0.00150) (  0.00446, -0.00055) ( -0.00599,  0.00074)
   0  99   26327.8    379.8     15.25835 (  0.04921, -0.03275) ( -0.00320,  0.00213) (  0.01951, -0.01299)
   0 100   26435.0    378.3      3.73846 (  0.00195,  0.00552) (  0.01548,  0.04380) (  0.00122,  0.00347)
   0 101   26498.5    377.4     -0.00909 (  0.00275, -0.00068) (  0.00018, -0.00005) (  0.00150, -0.00037)
   0 102   26499.2    377.4      0.06466 ( -0.00003, -0.00011) ( -0.00106, -0.00463) ( -0.00005, -0.00023)
   0 103   26500.3    377.4      0.04370 (  0.00226, -0.00471) (  0.00045, -0.00093) ( -0.00101,  0.00210)
   0 104   26540.1    376.8     -0.29275 (  0.00005, -0.00019) ( -0.00102,  0.00394) (  0.00038, -0.00146)
   0 105   26584.8    376.2     -0.00112 ( -0.00034, -0.00097) ( -0.00017, -0.00049) ( -0.00023, -0.00064)
   0 106   26584.8    376.2      0.00254 (  0.00016, -0.00066) ( -0.00006,  0.00027) ( -0.00012,  0.00052)
   0 107   26587.3    376.1     -0.01668 ( -0.00017,  0.00056) ( -0.00066,  0.00220) ( -0.00003,  0.00008)
   0 108   26638.8    375.4     -1.37941 (  0.02933, -0.00906) (  0.00177, -0.00055) ( -0.01298,  0.00401)
   0 109   26882.6    372.0     -4.98892 ( -0.00985, -0.00158) (  0.05000,  0.00804) ( -0.04012, -0.00645)
   0 110   26903.0    371.7      9.03992 ( -0.01493,  0.00457) ( -0.00229,  0.00070) ( -0.12725,  0.03898)
   0 111   26922.1    371.4     -0.00720 (  0.00011, -0.00002) ( -0.00127,  0.00017) ( -0.00104,  0.00014)
   0 112   26945.3    371.1     -0.33733 (  0.00024,  0.00145) ( -0.00080, -0.00481) (  0.00002,  0.00014)
   0 113   26993.2    370.5     -0.33728 (  0.00140,  0.00157) (  0.00680,  0.00761) (  0.00015,  0.00017)
   0 114   27044.4    369.8      0.83665 ( -0.00659,  0.00271) (  0.00110, -0.00045) ( -0.01231,  0.00507)
   0 115   27122.8    368.7      0.03916 ( -0.00380, -0.00322) (  0.00075,  0.00063) ( -0.00121, -0.00102)
   0 116   27125.0    368.7      0.21756 ( -0.01092,  0.00686) ( -0.00173,  0.00109) (  0.00001, -0.00000)
   0 117   27228.4    367.3     -5.35427 (  0.03222, -0.00745) (  0.00781, -0.00181) ( -0.03267,  0.00756)
   0 118   27313.5    366.1     -0.25925 ( -0.00083, -0.00024) ( -0.01395, -0.00398) (  0.00694,  0.00198)
   0 119   27316.4    366.1     -0.14298 (  0.00014, -0.00107) (  0.00184, -0.01402) (  0.00171, -0.01304)
   0 120   27342.2    365.7      0.10493 ( -0.00944,  0.00621) ( -0.00968,  0.00637) ( -0.01419,  0.00934)
   0 121   27378.9    365.2      0.75732 ( -0.01841, -0.00773) (  0.01184,  0.00497) ( -0.02401, -0.01008)
   0 122   27410.7    364.8     -0.24329 ( -0.00137, -0.00159) ( -0.01535, -0.01782) ( -0.00698, -0.00810)
   0 123   27417.7    364.7     -0.04246 ( -0.00695,  0.00432) (  0.00041, -0.00026) ( -0.00549,  0.00341)
   0 124   27489.2    363.8     -6.84348 ( -0.00269, -0.00258) ( -0.07975, -0.07646) ( -0.02303, -0.02208)
   0 125   27541.8    363.1     -1.49365 ( -0.06213,  0.01778) (  0.02127, -0.00609) ( -0.10515,  0.03009)
   0 126   27579.8    362.6      0.27992 (  0.00911, -0.00770) ( -0.02047,  0.01730) (  0.01999, -0.01689)
   0 127   27583.5    362.5      1.28376 (  0.01056, -0.00911) (  0.00357, -0.00308) (  0.03348, -0.02888)
   0 128   27609.9    362.2      2.97173 ( -0.01322,  0.03889) (  0.00200, -0.00589) ( -0.02754,  0.08099)
   0 129   27625.2    362.0      0.11478 ( -0.00578, -0.00690) (  0.00309,  0.00369) ( -0.01211, -0.01445)
   0 130   27638.5    361.8     -0.18066 (  0.00029,  0.00108) ( -0.00211, -0.00793) ( -0.00028, -0.00105)
   0 131   27645.5    361.7     -0.01205 ( -0.00860,  0.01243) (  0.00072, -0.00104) ( -0.00969,  0.01401)
   0 132   27829.7    359.3     -0.39324 ( -0.00172, -0.00217) (  0.00983,  0.01240) ( -0.00103, -0.00130)
   0 133   27856.3    359.0     -0.01412 ( -0.00024, -0.00044) (  0.00030,  0.00056) (  0.00129,  0.00237)
   0 134   27857.6    359.0      0.08431 ( -0.00315,  0.00391) (  0.00188, -0.00233) ( -0.01249,  0.01551)
   0 135   28028.5    356.8      0.15169 ( -0.00079, -0.00012) ( -0.00605, -0.00093) ( -0.00251, -0.00039)
   0 136   28057.7    356.4      0.06474 ( -0.00339,  0.00093) (  0.00023, -0.00006) ( -0.00830,  0.00227)
   0 137   28071.3    356.2     -0.15340 (  0.01169, -0.00806) ( -0.00122,  0.00084) (  0.01791, -0.01235)
   0 138   28136.1    355.4      0.30340 (  0.00177, -0.00092) (  0.02480, -0.01285) (  0.00233, -0.00121)
   0 139   28377.5    352.4      0.11380 (  0.00061,  0.00067) (  0.00145,  0.00159) (  0.00147,  0.00162)
   0 140   28397.2    352.1     -0.43600 (  0.00544,  0.00126) (  0.00009,  0.00002) (  0.01004,  0.00233)
   0 141   28408.4    352.0      0.18852 (  0.00011, -0.00028) (  0.00274, -0.00681) (  0.00038, -0.00095)
   0 142   28500.2    350.9     -0.49809 ( -0.00584,  0.00204) (  0.00060, -0.00021) ( -0.00688,  0.00240)
   0 143   28515.2    350.7      0.03908 ( -0.00073,  0.00035) ( -0.00083,  0.00041) (  0.00197, -0.00096)
   0 144   28521.0    350.6      0.23068 ( -0.00012,  0.00096) (  0.00108, -0.00852) (  0.00002, -0.00019)
   0 145   28652.5    349.0      1.09041 ( -0.00263, -0.00067) (  0.01965,  0.00503) (  0.00344,  0.00088)
   0 146   28674.2    348.7     -1.44657 (  0.01114, -0.00164) (  0.00309, -0.00045) (  0.00641, -0.00094)
   0 147   28696.7    348.5      0.00123 ( -0.00005,  0.00011) ( -0.00273,  0.00560) ( -0.00010,  0.00021)
   0 148   28904.9    346.0     -4.22906 ( -0.01538,  0.03411) ( -0.00642,  0.01425) ( -0.03082,  0.06836)
   0 149   28930.6    345.7     32.12391 ( -0.00637,  0.01175) (  0.06623, -0.12211) ( -0.00018,  0.00033)
   0 150   28957.6    345.3     -0.38009 (  0.00944, -0.00334) ( -0.01627,  0.00575) ( -0.02407,  0.00851)
   0 151   29121.7    343.4     -0.18051 (  0.00387, -0.00024) (  0.00014, -0.00001) ( -0.00405,  0.00025)
   0 152   29128.5    343.3      0.21931 ( -0.00011, -0.00298) ( -0.00014, -0.00391) ( -0.00011, -0.00297)
   0 153   29188.6    342.6      6.45212 (  0.03046, -0.02517) ( -0.00461,  0.00381) (  0.06384, -0.05277)
   0 154   29387.3    340.3      0.58732 (  0.00004,  0.00031) ( -0.00150, -0.01240) ( -0.00050, -0.00410)
   0 155   29397.6    340.2      0.45212 ( -0.00013, -0.00071) (  0.00329,  0.01828) (  0.00035,  0.00197)
   0 156   29525.1    338.7     -7.54309 (  0.03346, -0.01710) (  0.00260, -0.00133) (  0.02120, -0.01084)
   0 157   29697.0    336.7      1.18007 ( -0.00051, -0.00187) ( -0.00275, -0.01000) (  0.00084,  0.00306)
   0 158   29716.3    336.5      0.43295 ( -0.00284,  0.00101) (  0.00228, -0.00081) (  0.00515, -0.00183)
   0 159   29743.8    336.2     -0.09659 (  0.01619, -0.00481) (  0.00236, -0.00070) (  0.02125, -0.00631)
   0 160   29864.3    334.8     46.42273 (  0.00252,  0.01166) ( -0.04851, -0.22398) ( -0.00219, -0.01009)
   0 161   29871.0    334.8     -3.98145 ( -0.00547, -0.00110) (  0.06888,  0.01389) (  0.00696,  0.00140)
   0 162   29962.0    333.8     -0.67490 ( -0.01169,  0.00602) ( -0.00405,  0.00209) ( -0.01701,  0.00876)
   0 163   29995.3    333.4     -0.04781 ( -0.00177,  0.00026) (  0.00676, -0.00101) (  0.00272, -0.00040)
   0 164   30003.9    333.3     -0.04389 ( -0.00147,  0.00029) ( -0.00899,  0.00179) (  0.00141, -0.00028)
   0 165   30020.3    333.1      0.22879 (  0.00236, -0.00159) (  0.00736, -0.00495) (  0.00486, -0.00327)
   0 166   30024.0    333.1     -1.07570 (  0.01000, -0.00298) ( -0.00335,  0.00100) (  0.02007, -0.00599)
   0 167   30188.8    331.2     -1.38567 ( -0.00057, -0.00213) (  0.00722,  0.02678) (  0.00087,  0.00321)
   0 168   30221.6    330.9     15.86265 (  0.03762, -0.01610) ( -0.01177,  0.00504) (  0.04691, -0.02007)
   0 169   30256.9    330.5    -12.99098 ( -0.00411,  0.00725) (  0.03613, -0.06377) (  0.00373, -0.00659)
   0 170   30342.8    329.6     -2.71309 ( -0.00590,  0.02817) ( -0.00340,  0.01620) ( -0.01771,  0.08449)
   0 171   30399.8    328.9     -0.47114 ( -0.00038, -0.00004) (  0.01854,  0.00185) (  0.00488,  0.00049)
   0 172   30406.1    328.9      0.03558 ( -0.00377,  0.00169) (  0.00234, -0.00105) ( -0.00457,  0.00206)
   0 173   30409.7    328.8      0.23199 ( -0.00064,  0.00143) ( -0.00348,  0.00776) ( -0.00106,  0.00237)
   0 174   30494.1    327.9      0.01081 (  0.00136,  0.00033) ( -0.00361, -0.00087) (  0.00013,  0.00003)
   0 175   30502.5    327.8     -0.17708 ( -0.00590, -0.00857) ( -0.00397, -0.00577) ( -0.00127, -0.00185)
   0 176   30502.8    327.8     -0.10042 ( -0.00362,  0.00865) (  0.00204, -0.00487) ( -0.00017,  0.00041)
   0 177   30593.5    326.9      3.45291 ( -0.05087, -0.00027) ( -0.00221, -0.00001) ( -0.00235, -0.00001)
   0 178   30658.8    326.2     -0.64119 ( -0.00328,  0.00028) ( -0.00346,  0.00029) (  0.03413, -0.00291)
   0 179   30787.3    324.8      0.03682 (  0.00006, -0.00203) ( -0.00004,  0.00155) (  0.00001, -0.00041)
   0 180   30790.7    324.8      0.03729 (  0.00386, -0.00136) (  0.00152, -0.00054) ( -0.00306,  0.00108)
   0 181   30793.3    324.7     -0.01525 (  0.00186,  0.00187) ( -0.00075, -0.00075) ( -0.00020, -0.00020)
   0 182   30856.7    324.1     -0.51787 (  0.01309, -0.00242) (  0.00119, -0.00022) (  0.02693, -0.00498)
   0 183   30887.7    323.8     -0.06669 ( -0.00028, -0.00081) ( -0.00290, -0.00830) ( -0.00010, -0.00030)
   0 184   30893.8    323.7      0.03048 (  0.00023, -0.00004) ( -0.00108,  0.00021) ( -0.00082,  0.00016)
   0 185   30902.8    323.6     -0.80537 (  0.01240, -0.00297) (  0.00038, -0.00009) (  0.00244, -0.00058)
   0 186   30912.3    323.5     -0.02372 ( -0.00010, -0.00070) ( -0.00093, -0.00649) ( -0.00009, -0.00061)
   0 187   30930.0    323.3      0.14498 ( -0.00267, -0.00012) ( -0.00103, -0.00005) ( -0.01203, -0.00054)
   0 188   31039.0    322.2      0.50076 (  0.00086,  0.00328) ( -0.00738, -0.02806) ( -0.00034, -0.00128)
   0 189   31069.7    321.9     -1.91625 ( -0.00122,  0.00189) (  0.01615, -0.02508) (  0.00250, -0.00389)
   0 190   31086.9    321.7     -0.95529 (  0.02515, -0.00648) ( -0.00047,  0.00012) (  0.04066, -0.01048)
   0 191   31114.3    321.4     -0.89191 (  0.00700, -0.00238) ( -0.00201,  0.00068) (  0.02234, -0.00760)
   0 192   31140.7    321.1     -6.31110 ( -0.04566,  0.00068) ( -0.00040,  0.00001) ( -0.06964,  0.00104)
   0 193   31214.4    320.4      0.02110 ( -0.00296,  0.00210) ( -0.00178,  0.00126) ( -0.00562,  0.00400)
   0 194   31215.3    320.4     -0.03707 (  0.00075,  0.00117) ( -0.00405, -0.00637) (  0.00027,  0.00042)
   0 195   31290.5    319.6      0.09865 (  0.00058,  0.00231) ( -0.00185, -0.00733) (  0.00086,  0.00343)
   0 196   31308.4    319.4     -2.47736 ( -0.00553,  0.03286) (  0.00098, -0.00581) ( -0.00699,  0.04159)
   0 197   31313.0    319.4    -11.81881 (  0.05867, -0.04262) ( -0.00022,  0.00016) (  0.07551, -0.05486)
   0 198   31389.6    318.6      0.87284 ( -0.01103, -0.00717) (  0.00110,  0.00072) ( -0.03752, -0.02438)
   0 199   31484.6    317.6      0.00407 (  0.00003,  0.00057) (  0.00003,  0.00063) ( -0.00004, -0.00070)
   0 200   31485.0    317.6      0.00030 (  0.00004, -0.00005) (  0.00015, -0.00019) ( -0.00076,  0.00092)
   0 201   31485.1    317.6      0.00171 (  0.00005, -0.00004) ( -0.00069,  0.00054) (  0.00104, -0.00081)
   0 202   31509.3    317.4      0.01532 (  0.00056, -0.00237) (  0.00004, -0.00019) (  0.00013, -0.00057)
   0 203   31509.9    317.4      0.00327 (  0.00017, -0.00011) ( -0.00011,  0.00007) ( -0.00137,  0.00089)
   0 204   31510.0    317.4     -0.00020 (  0.00012, -0.00018) ( -0.00012,  0.00019) ( -0.00015,  0.00024)
   0 205   31544.1    317.0      1.71431 ( -0.00254,  0.02259) ( -0.00074,  0.00663) (  0.00075, -0.00670)
   0 206   31564.7    316.8      1.32326 ( -0.01643,  0.02390) ( -0.00190,  0.00277) ( -0.00009,  0.00013)
   0 207   31587.4    316.6     -0.22985 ( -0.00058, -0.00068) (  0.00622,  0.00728) ( -0.00022, -0.00025)
   0 208   31611.2    316.3      1.38101 (  0.01759, -0.00086) ( -0.00469,  0.00023) ( -0.01031,  0.00051)
   0 209   31652.4    315.9      0.19174 ( -0.00094, -0.00336) ( -0.00088, -0.00314) ( -0.00016, -0.00056)
   0 210   31694.3    315.5     -3.40449 (  0.01559,  0.00515) ( -0.00010, -0.00003) (  0.02479,  0.00819)
   0 211   31703.9    315.4      0.04937 (  0.00002, -0.00037) ( -0.00063,  0.00985) (  0.00006, -0.00100)
   0 212   31728.2    315.2     -1.46321 ( -0.00155,  0.01109) (  0.00169, -0.01205) ( -0.00246,  0.01755)
   0 213   31732.4    315.1     -4.84027 ( -0.02860, -0.01714) ( -0.00039, -0.00023) ( -0.03432, -0.02056)
   0 214   31806.7    314.4     -0.04541 (  0.00039,  0.00084) ( -0.00536, -0.01145) (  0.00118,  0.00253)
   0 215   31816.7    314.3     -0.16423 (  0.00336,  0.00188) ( -0.00421, -0.00236) ( -0.01053, -0.00590)
   0 216   31863.0    313.8     -0.06321 ( -0.00705,  0.00233) (  0.00726, -0.00240) ( -0.03793,  0.01254)
   0 217   31882.0    313.7     -0.00178 ( -0.00074, -0.00207) ( -0.00933, -0.02598) (  0.00119,  0.00330)
   0 218   31907.5    313.4     -5.25595 ( -0.00252,  0.00316) (  0.02753, -0.03458) (  0.01587, -0.01993)
   0 219   31926.4    313.2     10.56619 ( -0.03308,  0.01318) ( -0.01467,  0.00585) ( -0.03938,  0.01569)
   0 220   31944.8    313.0     -5.66202 (  0.00255, -0.00193) (  0.00480, -0.00363) (  0.04921, -0.03721)
   0 221   31961.2    312.9     -8.72860 (  0.01418,  0.00227) ( -0.02349, -0.00376) (  0.08345,  0.01337)
   0 222   32006.9    312.4     -2.18573 (  0.00004, -0.00368) ( -0.00019,  0.01563) ( -0.00013,  0.01122)
   0 223   32024.0    312.3      0.28937 (  0.00388,  0.00475) ( -0.00408, -0.00499) (  0.01127,  0.01380)
   0 224   32047.9    312.0      8.63273 (  0.00642, -0.05980) ( -0.00160,  0.01487) (  0.01474, -0.13718)
   0 225   32063.4    311.9      5.31454 (  0.04850, -0.02660) ( -0.00132,  0.00073) (  0.10996, -0.06030)
   0 226   32122.6    311.3      8.29133 (  0.03422, -0.01276) ( -0.00923,  0.00344) (  0.07972, -0.02971)
   0 227   32133.5    311.2      0.36382 (  0.00352,  0.01093) ( -0.00141, -0.00437) (  0.00979,  0.03036)
   0 228   32266.7    309.9    -11.95839 (  0.00862,  0.01841) (  0.04331,  0.09256) (  0.01890,  0.04040)
   0 229   32293.8    309.7    -16.43682 ( -0.04224,  0.03748) (  0.04625, -0.04104) ( -0.06916,  0.06138)
   0 230   32443.4    308.2      7.08881 (  0.00509, -0.00554) (  0.07110, -0.07732) (  0.01396, -0.01518)
   0 231   32571.1    307.0     10.90868 ( -0.00283, -0.00885) (  0.03356,  0.10493) (  0.00481,  0.01504)
   0 232   32723.2    305.6     26.52252 (  0.02025,  0.07323) ( -0.00485, -0.01754) (  0.02652,  0.09593)
   0 233   32732.1    305.5      7.72231 (  0.00614,  0.04746) ( -0.00036, -0.00280) (  0.00542,  0.04194)
   0 234   32876.9    304.2     14.94945 (  0.00431,  0.00374) ( -0.00845, -0.00733) ( -0.05527, -0.04792)
   0 235   32964.0    303.4     -2.92760 (  0.00031,  0.00094) (  0.01343,  0.04147) ( -0.00076, -0.00235)
   0 236   33064.9    302.4     32.05743 ( -0.00267,  0.00339) ( -0.00391,  0.00496) (  0.09517, -0.12076)
   0 237   33155.1    301.6     27.37495 ( -0.00019, -0.06287) (  0.00036,  0.11968) ( -0.00008, -0.02742)
   0 238   33183.9    301.4    -24.10314 ( -0.09328,  0.14177) ( -0.03284,  0.04990) ( -0.03603,  0.05477)
   0 239   33353.2    299.8      8.02223 ( -0.02071, -0.03074) ( -0.00066, -0.00097) (  0.00986,  0.01463)
   0 240   33490.8    298.6      4.99828 ( -0.00081, -0.00648) (  0.00912,  0.07306) (  0.00051,  0.00405)

*The complex numbers are printed as (real, imaginary)

The electronic components of the SOC ground state dipole moment in a.u. are:
           X                     Y                     Z
(  0.52833, -0.00000) (-24.48260, -0.00000) ( -3.64833, -0.00000)

Total run time:     5035.296 sec

           *** ORCA-CIS/TD-DFT FINISHED WITHOUT ERROR ***

Maximum memory used throughout the entire CIS-calculation: 13336.4 MB

---------------------------
SOC CIS/TD-DFT TOTAL ENERGY
---------------------------

    E(SCF)        = -21746.045424778 Eh
    E(SOC CIS)    =      0.067204772 Eh (SOC Root  1)
    ----------------------------- ---------
    E(tot)        = -21745.978220005 Eh


-------------------------   --------------------
FINAL SINGLE POINT ENERGY    -21745.978220005396
-------------------------   --------------------


                            ***************************************
                            *     ORCA property calculations      *
                            ***************************************

                                    ---------------------
                                    Active property flags
                                    ---------------------
   (+) Dipole Moment


------------------------------------------------------------------------------
                       ORCA ELECTRIC PROPERTIES CALCULATION
------------------------------------------------------------------------------

Dipole Moment Calculation                       ... on
Quadrupole Moment Calculation                   ... off
Polarizability Calculation                      ... off
GBWName                                         ... Ir_isoCN_5_SOC-M06L_def2SVP.gbw
Electron density                                ... Ir_isoCN_5_SOC-M06L_def2SVP.scfp
The origin for moment calculation is the CENTER OF MASS  = ( 0.001111, -0.050418 -0.007284)

-------------
DIPOLE MOMENT
-------------
                                X             Y             Z
Electronic contribution:      0.52783     -24.47899      -3.64768
Nuclear contribution   :     -0.59895      27.17552       3.92592
                        -----------------------------------------
Total Dipole Moment    :     -0.07112       2.69653       0.27824
                        -----------------------------------------
Magnitude (a.u.)       :      2.71178
Magnitude (Debye)      :      6.89279



--------------------
Rotational spectrum 
--------------------
 
Rotational constants in cm-1:     0.001223     0.001140     0.001100 
Rotational constants in MHz :    36.666721    34.176548    32.965387 

 Dipole components along the rotational axes: 
x,y,z [a.u.] :    -0.070432    -2.693490     0.306394 
x,y,z [Debye]:    -0.179025    -6.846307     0.778792 

 

Timings for individual modules:

Sum of individual times         ...     5361.036 sec (=  89.351 min)
GTO integral calculation        ...        9.328 sec (=   0.155 min)   0.2 %
Relativistic integrals          ...       39.406 sec (=   0.657 min)   0.7 %
SCF iterations                  ...      275.162 sec (=   4.586 min)   5.1 %
CIS module                      ...     5037.140 sec (=  83.952 min)  94.0 %
                             ****ORCA TERMINATED NORMALLY****
TOTAL RUN TIME: 0 days 1 hours 29 minutes 22 seconds 954 msec
