
                                 *****************
                                 * O   R   C   A *
                                 *****************

                                            #,                                       
                                            ###                                      
                                            ####                                     
                                            #####                                    
                                            ######                                   
                                           ########,                                 
                                     ,,################,,,,,                         
                               ,,#################################,,                 
                          ,,##########################################,,             
                       ,#########################################, ''#####,          
                    ,#############################################,,   '####,        
                  ,##################################################,,,,####,       
                ,###########''''           ''''###############################       
              ,#####''   ,,,,##########,,,,          '''####'''          '####       
            ,##' ,,,,###########################,,,                        '##       
           ' ,,###''''                  '''############,,,                           
         ,,##''                                '''############,,,,        ,,,,,,###''
      ,#''                                            '''#######################'''  
     '                                                          ''''####''''         
             ,#######,   #######,   ,#######,      ##                                
            ,#'     '#,  ##    ##  ,#'     '#,    #''#        ######   ,####,        
            ##       ##  ##   ,#'  ##            #'  '#       #        #'  '#        
            ##       ##  #######   ##           ,######,      #####,   #    #        
            '#,     ,#'  ##    ##  '#,     ,#' ,#      #,         ##   #,  ,#        
             '#######'   ##     ##  '#######'  #'      '#     #####' # '####'        



                  #######################################################
                  #                        -***-                        #
                  #          Department of theory and spectroscopy      #
                  #    Directorship and core code : Frank Neese         #
                  #        Max Planck Institute fuer Kohlenforschung    #
                  #                Kaiser Wilhelm Platz 1               #
                  #                 D-45470 Muelheim/Ruhr               #
                  #                      Germany                        #
                  #                                                     #
                  #                  All rights reserved                #
                  #                        -***-                        #
                  #######################################################


                         Program Version 5.0.4 -  RELEASE  -


 With contributions from (in alphabetic order):
   Daniel Aravena         : Magnetic Suceptibility
   Michael Atanasov       : Ab Initio Ligand Field Theory (pilot matlab implementation)
   Alexander A. Auer      : GIAO ZORA, VPT2 properties, NMR spectrum
   Ute Becker             : Parallelization
   Giovanni Bistoni       : ED, misc. LED, open-shell LED, HFLD
   Martin Brehm           : Molecular dynamics
   Dmytro Bykov           : SCF Hessian
   Vijay G. Chilkuri      : MRCI spin determinant printing, contributions to CSF-ICE
   Dipayan Datta          : RHF DLPNO-CCSD density
   Achintya Kumar Dutta   : EOM-CC, STEOM-CC
   Dmitry Ganyushin       : Spin-Orbit,Spin-Spin,Magnetic field MRCI
   Miquel Garcia          : C-PCM and meta-GGA Hessian, CC/C-PCM, Gaussian charge scheme
   Yang Guo               : DLPNO-NEVPT2, F12-NEVPT2, CIM, IAO-localization
   Andreas Hansen         : Spin unrestricted coupled pair/coupled cluster methods
   Benjamin Helmich-Paris : MC-RPA, TRAH-SCF, COSX integrals
   Lee Huntington         : MR-EOM, pCC
   Robert Izsak           : Overlap fitted RIJCOSX, COSX-SCS-MP3, EOM
   Marcus Kettner         : VPT2
   Christian Kollmar      : KDIIS, OOCD, Brueckner-CCSD(T), CCSD density, CASPT2, CASPT2-K
   Simone Kossmann        : Meta GGA functionals, TD-DFT gradient, OOMP2, MP2 Hessian
   Martin Krupicka        : Initial AUTO-CI
   Lucas Lang             : DCDCAS
   Marvin Lechner         : AUTO-CI (C++ implementation), FIC-MRCC
   Dagmar Lenk            : GEPOL surface, SMD
   Dimitrios Liakos       : Extrapolation schemes; Compound Job, initial MDCI parallelization
   Dimitrios Manganas     : Further ROCIS development; embedding schemes
   Dimitrios Pantazis     : SARC Basis sets
   Anastasios Papadopoulos: AUTO-CI, single reference methods and gradients
   Taras Petrenko         : DFT Hessian,TD-DFT gradient, ASA, ECA, R-Raman, ABS, FL, XAS/XES, NRVS
   Peter Pinski           : DLPNO-MP2, DLPNO-MP2 Gradient
   Christoph Reimann      : Effective Core Potentials
   Marius Retegan         : Local ZFS, SOC
   Christoph Riplinger    : Optimizer, TS searches, QM/MM, DLPNO-CCSD(T), (RO)-DLPNO pert. Triples
   Tobias Risthaus        : Range-separated hybrids, TD-DFT gradient, RPA, STAB
   Michael Roemelt        : Original ROCIS implementation
   Masaaki Saitow         : Open-shell DLPNO-CCSD energy and density
   Barbara Sandhoefer     : DKH picture change effects
   Avijit Sen             : IP-ROCIS
   Kantharuban Sivalingam : CASSCF convergence, NEVPT2, FIC-MRCI
   Bernardo de Souza      : ESD, SOC TD-DFT
   Georgi Stoychev        : AutoAux, RI-MP2 NMR, DLPNO-MP2 response
   Willem Van den Heuvel  : Paramagnetic NMR
   Boris Wezisla          : Elementary symmetry handling
   Frank Wennmohs         : Technical directorship


 We gratefully acknowledge several colleagues who have allowed us to
 interface, adapt or use parts of their codes:
   Stefan Grimme, W. Hujo, H. Kruse, P. Pracht,  : VdW corrections, initial TS optimization,
                  C. Bannwarth, S. Ehlert          DFT functionals, gCP, sTDA/sTD-DF
   Ed Valeev, F. Pavosevic, A. Kumar             : LibInt (2-el integral package), F12 methods
   Garnet Chan, S. Sharma, J. Yang, R. Olivares  : DMRG
   Ulf Ekstrom                                   : XCFun DFT Library
   Mihaly Kallay                                 : mrcc  (arbitrary order and MRCC methods)
   Jiri Pittner, Ondrej Demel                    : Mk-CCSD
   Frank Weinhold                                : gennbo (NPA and NBO analysis)
   Christopher J. Cramer and Donald G. Truhlar   : smd solvation model
   Lars Goerigk                                  : TD-DFT with DH, B97 family of functionals
   V. Asgeirsson, H. Jonsson                     : NEB implementation
   FAccTs GmbH                                   : IRC, NEB, NEB-TS, DLPNO-Multilevel, CI-OPT
                                                   MM, QMMM, 2- and 3-layer-ONIOM, Crystal-QMMM,
                                                   LR-CPCM, SF, NACMEs, symmetry and pop. for TD-DFT,
                                                   nearIR, NL-DFT gradient (VV10), updates on ESD,
                                                   ML-optimized integration grids
   S Lehtola, MJT Oliveira, MAL Marques          : LibXC Library
   Liviu Ungur et al                             : ANISO software


 Your calculation uses the libint2 library for the computation of 2-el integrals
 For citations please refer to: http://libint.valeyev.net

 Your ORCA version has been built with support for libXC version: 5.1.0
 For citations please refer to: https://tddft.org/programs/libxc/

 This ORCA versions uses:
   CBLAS   interface :  Fast vector & matrix operations
   LAPACKE interface :  Fast linear algebra routines
   SCALAPACK package :  Parallel linear algebra routines
   Shared memory     :  Shared parallel matrices
   BLAS/LAPACK       :  OpenBLAS 0.3.15  USE64BITINT DYNAMIC_ARCH NO_AFFINITY Zen SINGLE_THREADED
        Core in use  :  Zen
   Copyright (c) 2011-2014, The OpenBLAS Project


Your calculation utilizes the SMD solvation module
Please cite in your paper:
A.V. Marenich, C.J. Cramer, D.G. Truhlar J. Phys. Chem. B, 113, (2009), 6378 

XCFun DFT library Copyright 2009-2010 Ulf Ekstrom and contributors.
See http://admol.org/xcfun for more information.
This is free software; see the source code for copying conditions.
There is ABSOLUTELY NO WARRANTY; not even for MERCHANTABILITY or FITNESS FOR A PARTICULAR PURPOSE.
For details see the documentation.
Scientific users of this library should cite U. Ekstrom, L. Visscher, R. Bast, A. J. Thorvaldsen and K. Ruud;
J.Chem.Theor.Comp. 2010, DOI: 10.1021/ct100117s
XCFun Version 0.99 

================================================================================

----- Orbital basis set information -----
Your calculation utilizes the basis: ZORA-def2-SVP 
   Exponents from def2-SVP [F. Weigend and R. Ahlrichs, Phys. Chem. Chem. Phys. 7, 3297 (2005)],
   recontracted for ZORA by D. A. Pantazis.

The basis set includes element-specific modifications.

Your calculation utilizes the basis: SARC-ZORA-TZVP 
   Rb-Xe:  J. D. Rolfes, F. Neese and D. A. Pantazis, J. Comput. Chem. 41, 1842 (2020).
   La-Lu:  D. A. Pantazis and F. Neese, J. Chem. Theory Comput. 5, 2229 (2009).
   Hf-Hg:  D. A. Pantazis, X. Y. Chen, C. R. Landis and F. Neese, J. Chem. Theory Comput. 4, 908 (2008).
   Tl-Rn:  D. A. Pantazis and F. Neese, Theor. Chem. Acc. 131, 1292 (2012).
   Ac-Lr:  D. A. Pantazis and F. Neese, J. Chem. Theory Comput. 7, 677 (2011).

----- AuxJ basis set information -----
Your calculation utilizes the auxiliary basis: SARC/J 
   decontracted def2/J up to Kr:
   F. Weigend, Phys. Chem. Chem. Phys. 8, 1057 (2006)
   and SARC auxiliary basis sets beyond Kr:
   D. A. Pantazis and F. Neese, J. Chem. Theory Comput. 5, 2229 (2009).
   D. A. Pantazis, X. Y. Chen, C. R. Landis and F. Neese, J. Chem. Theory Comput. 4, 908 (2008).
   D. A. Pantazis and F. Neese, Theor. Chem. Acc. 131, 1292 (2012).
   D. A. Pantazis and F. Neese, J. Chem. Theory Comput. 7, 677 (2011).

================================================================================
                                        WARNINGS
                       Please study these warnings very carefully!
================================================================================

INFO   : Checking CIS options ...

INFO   : Since TDDFT/CIS Mode == RPA_AOINTS, the TAMMDANCOFF/TDA keyword is ignored. 


WARNING: (CIS/TDDFT): Spin-orbit needs TRIPLETS set to TRUE
  ===> : ajusting flags

WARNING: CIS/ROCIS methods need fully converged wavefunctions
  ===> : Setting SCFConvForced true
         You can overwrite this default with %scf ConvForced false 


INFO   : the flag for use of the SHARK integral package has been found!

================================================================================
                                       INPUT FILE
================================================================================
NAME = Ir_isoCN_5_SOC-M06_def2SVP.inp
|  1> %maxcore 12000
|  2> %pal
|  3>  nprocs 8
|  4> end
|  5> ! M06 ZORA ZORA-DEF2-SVP SARC/J CPCM RI-SOMF(1X) DEFGRID3
|  6> 
|  7> %TDDFT 
|  8>     NROOTS    50
|  9>     TDA       FALSE
| 10>     DOSOC     TRUE
| 11> END
| 12> 
| 13> %CPCM
| 14>     SMD		TRUE
| 15>     SMDsolvent	"Acetonitrile"
| 16> END
| 17> 
| 18> %BASIS
| 19>     NEWGTO  RU      "SARC-ZORA-TZVP" END
| 20>     NEWGTO  IR      "SARC-ZORA-TZVP" END
| 21> END
| 22> 
| 23> * xyz 1 1
| 24> Ir                 -0.02492800   -0.02481900    0.10480800
| 25> S                  -0.63943500    2.90926900   -3.32308500
| 26> S                  -0.12456500   -3.36688900   -2.98660100
| 27> N                   1.55536400    1.32894400   -0.35560200
| 28> N                  -1.65309000   -1.40130800    0.15948000
| 29> N                   1.60365900   -2.12375900    1.89578100
| 30> N                  -1.12206200    2.38368300    1.91687700
| 31> C                   2.66341900    1.59670800    0.44293800
| 32> C                   2.68847500    1.19381700    1.79533600
| 33> H                   1.82770200    0.67817100    2.22099900
| 34> C                   3.76453500    1.48781900    2.60922100
| 35> H                   3.74386400    1.17573300    3.65784800
| 36> C                   4.86381300    2.19324300    2.10163800
| 37> H                   5.71797700    2.42439400    2.74341500
| 38> C                   4.85191400    2.61215800    0.78644700
| 39> H                   5.70175800    3.18188000    0.40410100
| 40> C                   3.76356100    2.33649500   -0.06561800
| 41> C                   3.72772600    2.77586600   -1.44404200
| 42> C                   4.82818000    3.38516600   -2.07863900
| 43> H                   5.75601300    3.54753700   -1.52627000
| 44> C                   4.76177100    3.76798400   -3.40372000
| 45> H                   5.62969800    4.23571300   -3.87670100
| 46> C                   3.59707100    3.53559300   -4.14997400
| 47> H                   3.55762200    3.80276500   -5.20906900
| 48> C                   2.50367100    2.94786100   -3.54842700
| 49> H                   1.62936300    2.72362800   -4.16228700
| 50> C                   2.53592200    2.57864000   -2.18534100
| 51> C                   1.41401200    1.93038600   -1.54479600
| 52> C                  -0.86832000    1.13024200   -1.38553200
| 53> C                  -2.19887300    1.38028900   -1.85529900
| 54> C                  -3.42561300    0.87870700   -1.37421300
| 55> H                  -3.43033400    0.17637100   -0.53674700
| 56> C                  -4.61563500    1.29578800   -1.94466500
| 57> H                  -5.56525500    0.90581400   -1.56719200
| 58> C                  -4.61688800    2.22356200   -3.00215700
| 59> H                  -5.56677600    2.54187600   -3.44164100
| 60> C                  -3.42995300    2.75097300   -3.49006300
| 61> H                  -3.43311000    3.48403600   -4.30224200
| 62> C                  -2.22926000    2.33065500   -2.90862700
| 63> C                   0.06869100    1.87543200   -2.07016900
| 64> C                  -2.56566700   -1.54991600    1.19940200
| 65> C                  -2.31095500   -0.97862900    2.46427800
| 66> H                  -1.38694800   -0.42429000    2.62748000
| 67> C                  -3.18798900   -1.15597800    3.51643500
| 68> H                  -2.95517100   -0.71618200    4.49022300
| 69> C                  -4.35853000   -1.90666800    3.34418000
| 70> H                  -5.05413100   -2.04568600    4.17587700
| 71> C                  -4.61909000   -2.48598900    2.11878700
| 72> H                  -5.52205300   -3.08858700    1.99686400
| 73> C                  -3.73899500   -2.33154300    1.02918400
| 74> C                  -3.99188000   -2.93486200   -0.26149000
| 75> C                  -5.19491200   -3.60078700   -0.56840100
| 76> H                  -5.98035100   -3.68236000    0.18577900
| 77> C                  -5.40817500   -4.14031400   -1.82142300
| 78> H                  -6.35108200   -4.64958700   -2.03890400
| 79> C                  -4.43260800   -4.01444200   -2.82152300
| 80> H                  -4.61720400   -4.40714400   -3.82467800
| 81> C                  -3.24316400   -3.37394500   -2.54234600
| 82> H                  -2.52190700   -3.23800800   -3.35044400
| 83> C                  -2.98834700   -2.84424400   -1.25779500
| 84> C                  -1.76286900   -2.14197400   -0.95162200
| 85> C                   0.49221600   -1.36445700   -1.37981900
| 86> C                   1.69672400   -1.69581200   -2.08276900
| 87> C                   2.99312600   -1.15987900   -1.93973700
| 88> H                   3.16942100   -0.35447200   -1.22245100
| 89> C                   4.03907500   -1.66797500   -2.69027900
| 90> H                   5.04335000   -1.25038400   -2.57461900
| 91> C                   3.82521800   -2.72167600   -3.59742700
| 92> H                   4.66358900   -3.11035200   -4.18294600
| 93> C                   2.56652300   -3.28391100   -3.75337400
| 94> H                   2.40430000   -4.11358100   -4.44793900
| 95> C                   1.51239000   -2.77177400   -2.98995700
| 96> C                  -0.56098400   -2.17228700   -1.75331200
| 97> C                   0.99086100   -1.30517400    1.32801000
| 98> C                   2.35033400   -3.04946900    2.59574900
| 99> C                   2.88820600   -4.14439000    1.89410300
|100> C                   3.64302600   -5.05913300    2.62990700
|101> H                   4.07658800   -5.92187000    2.11443200
|102> C                   3.84639100   -4.88285000    3.99697200
|103> H                   4.44204100   -5.61198100    4.55384200
|104> C                   3.29963700   -3.78716800    4.66191900
|105> H                   3.46364300   -3.65473900    5.73600000
|106> C                   2.53652600   -2.84214200    3.97526200
|107> C                   2.65402800   -4.29641500    0.42743000
|108> H                   3.12313600   -5.21368500    0.04411300
|109> H                   3.06579800   -3.43917100   -0.13567500
|110> H                   1.57551300   -4.33747200    0.19277900
|111> C                   1.93811000   -1.65302500    4.65114400
|112> H                   2.15558900   -1.65907500    5.72844800
|113> H                   0.84193400   -1.62370600    4.52156400
|114> H                   2.33142700   -0.71142100    4.22777800
|115> C                  -0.72469000    1.43801100    1.35463400
|116> C                  -1.60895200    3.50151800    2.56508100
|117> C                  -1.30309600    3.66945400    3.92827800
|118> C                  -1.81339300    4.80506500    4.55878000
|119> H                  -1.59494400    4.96364200    5.61954100
|120> C                  -2.58685200    5.72601300    3.85539900
|121> H                  -2.97707200    6.60959500    4.36877400
|122> C                  -2.86645200    5.53397900    2.50420100
|123> H                  -3.47205700    6.26302100    1.95665900
|124> C                  -2.38312900    4.41494700    1.82456200
|125> C                  -0.46044800    2.66871100    4.64705800
|126> H                  -0.89751200    1.65656100    4.59188800
|127> H                  -0.34733800    2.93499000    5.70730700
|128> H                   0.54788100    2.60102300    4.20221900
|129> C                  -2.66412300    4.17690600    0.37797100
|130> H                  -3.24052400    5.00639800   -0.05582500
|131> H                  -3.23943800    3.24534800    0.22834400
|132> H                  -1.73054800    4.06434700   -0.20210900
|133> *
|134> 
|135>                          ****END OF INPUT****
================================================================================

                       ****************************
                       * Single Point Calculation *
                       ****************************

---------------------------------
CARTESIAN COORDINATES (ANGSTROEM)
---------------------------------
  Ir    -0.024928   -0.024819    0.104808
  S     -0.639435    2.909269   -3.323085
  S     -0.124565   -3.366889   -2.986601
  N      1.555364    1.328944   -0.355602
  N     -1.653090   -1.401308    0.159480
  N      1.603659   -2.123759    1.895781
  N     -1.122062    2.383683    1.916877
  C      2.663419    1.596708    0.442938
  C      2.688475    1.193817    1.795336
  H      1.827702    0.678171    2.220999
  C      3.764535    1.487819    2.609221
  H      3.743864    1.175733    3.657848
  C      4.863813    2.193243    2.101638
  H      5.717977    2.424394    2.743415
  C      4.851914    2.612158    0.786447
  H      5.701758    3.181880    0.404101
  C      3.763561    2.336495   -0.065618
  C      3.727726    2.775866   -1.444042
  C      4.828180    3.385166   -2.078639
  H      5.756013    3.547537   -1.526270
  C      4.761771    3.767984   -3.403720
  H      5.629698    4.235713   -3.876701
  C      3.597071    3.535593   -4.149974
  H      3.557622    3.802765   -5.209069
  C      2.503671    2.947861   -3.548427
  H      1.629363    2.723628   -4.162287
  C      2.535922    2.578640   -2.185341
  C      1.414012    1.930386   -1.544796
  C     -0.868320    1.130242   -1.385532
  C     -2.198873    1.380289   -1.855299
  C     -3.425613    0.878707   -1.374213
  H     -3.430334    0.176371   -0.536747
  C     -4.615635    1.295788   -1.944665
  H     -5.565255    0.905814   -1.567192
  C     -4.616888    2.223562   -3.002157
  H     -5.566776    2.541876   -3.441641
  C     -3.429953    2.750973   -3.490063
  H     -3.433110    3.484036   -4.302242
  C     -2.229260    2.330655   -2.908627
  C      0.068691    1.875432   -2.070169
  C     -2.565667   -1.549916    1.199402
  C     -2.310955   -0.978629    2.464278
  H     -1.386948   -0.424290    2.627480
  C     -3.187989   -1.155978    3.516435
  H     -2.955171   -0.716182    4.490223
  C     -4.358530   -1.906668    3.344180
  H     -5.054131   -2.045686    4.175877
  C     -4.619090   -2.485989    2.118787
  H     -5.522053   -3.088587    1.996864
  C     -3.738995   -2.331543    1.029184
  C     -3.991880   -2.934862   -0.261490
  C     -5.194912   -3.600787   -0.568401
  H     -5.980351   -3.682360    0.185779
  C     -5.408175   -4.140314   -1.821423
  H     -6.351082   -4.649587   -2.038904
  C     -4.432608   -4.014442   -2.821523
  H     -4.617204   -4.407144   -3.824678
  C     -3.243164   -3.373945   -2.542346
  H     -2.521907   -3.238008   -3.350444
  C     -2.988347   -2.844244   -1.257795
  C     -1.762869   -2.141974   -0.951622
  C      0.492216   -1.364457   -1.379819
  C      1.696724   -1.695812   -2.082769
  C      2.993126   -1.159879   -1.939737
  H      3.169421   -0.354472   -1.222451
  C      4.039075   -1.667975   -2.690279
  H      5.043350   -1.250384   -2.574619
  C      3.825218   -2.721676   -3.597427
  H      4.663589   -3.110352   -4.182946
  C      2.566523   -3.283911   -3.753374
  H      2.404300   -4.113581   -4.447939
  C      1.512390   -2.771774   -2.989957
  C     -0.560984   -2.172287   -1.753312
  C      0.990861   -1.305174    1.328010
  C      2.350334   -3.049469    2.595749
  C      2.888206   -4.144390    1.894103
  C      3.643026   -5.059133    2.629907
  H      4.076588   -5.921870    2.114432
  C      3.846391   -4.882850    3.996972
  H      4.442041   -5.611981    4.553842
  C      3.299637   -3.787168    4.661919
  H      3.463643   -3.654739    5.736000
  C      2.536526   -2.842142    3.975262
  C      2.654028   -4.296415    0.427430
  H      3.123136   -5.213685    0.044113
  H      3.065798   -3.439171   -0.135675
  H      1.575513   -4.337472    0.192779
  C      1.938110   -1.653025    4.651144
  H      2.155589   -1.659075    5.728448
  H      0.841934   -1.623706    4.521564
  H      2.331427   -0.711421    4.227778
  C     -0.724690    1.438011    1.354634
  C     -1.608952    3.501518    2.565081
  C     -1.303096    3.669454    3.928278
  C     -1.813393    4.805065    4.558780
  H     -1.594944    4.963642    5.619541
  C     -2.586852    5.726013    3.855399
  H     -2.977072    6.609595    4.368774
  C     -2.866452    5.533979    2.504201
  H     -3.472057    6.263021    1.956659
  C     -2.383129    4.414947    1.824562
  C     -0.460448    2.668711    4.647058
  H     -0.897512    1.656561    4.591888
  H     -0.347338    2.934990    5.707307
  H      0.547881    2.601023    4.202219
  C     -2.664123    4.176906    0.377971
  H     -3.240524    5.006398   -0.055825
  H     -3.239438    3.245348    0.228344
  H     -1.730548    4.064347   -0.202109

----------------------------
CARTESIAN COORDINATES (A.U.)
----------------------------
  NO LB      ZA    FRAG     MASS         X           Y           Z
   0 Ir   77.0000    0   192.220   -0.047107   -0.046901    0.198058
   1 S    16.0000    0    32.060   -1.208357    5.497722   -6.279721
   2 S    16.0000    0    32.060   -0.235394   -6.362498   -5.643858
   3 N     7.0000    0    14.007    2.939212    2.511340   -0.671990
   4 N     7.0000    0    14.007   -3.123887   -2.648088    0.301374
   5 N     7.0000    0    14.007    3.030476   -4.013323    3.582507
   6 N     7.0000    0    14.007   -2.120390    4.504508    3.622373
   7 C     6.0000    0    12.011    5.033132    3.017341    0.837032
   8 C     6.0000    0    12.011    5.080481    2.255987    3.392693
   9 H     1.0000    0     1.008    3.453856    1.281557    4.197080
  10 C     6.0000    0    12.011    7.113940    2.811570    4.930713
  11 H     1.0000    0     1.008    7.074878    2.221813    6.912331
  12 C     6.0000    0    12.011    9.191275    4.144629    3.971520
  13 H     1.0000    0     1.008   10.805411    4.581441    5.184303
  14 C     6.0000    0    12.011    9.168789    4.936263    1.486169
  15 H     1.0000    0     1.008   10.774761    6.012882    0.763640
  16 C     6.0000    0    12.011    7.112100    4.415336   -0.124000
  17 C     6.0000    0    12.011    7.044381    5.245627   -2.728844
  18 C     6.0000    0    12.011    9.123938    6.397037   -3.928058
  19 H     1.0000    0     1.008   10.877288    6.703873   -2.884232
  20 C     6.0000    0    12.011    8.998443    7.120458   -6.432099
  21 H     1.0000    0     1.008   10.638587    8.004338   -7.325903
  22 C     6.0000    0    12.011    6.797479    6.681302   -7.842314
  23 H     1.0000    0     1.008    6.722931    7.186184   -9.843714
  24 C     6.0000    0    12.011    4.731253    5.570650   -6.705555
  25 H     1.0000    0     1.008    3.079050    5.146911   -7.865583
  26 C     6.0000    0    12.011    4.792198    4.872923   -4.129696
  27 C     6.0000    0    12.011    2.672095    3.647901   -2.919241
  28 C     6.0000    0    12.011   -1.640887    2.135848   -2.618276
  29 C     6.0000    0    12.011   -4.155268    2.608368   -3.506007
  30 C     6.0000    0    12.011   -6.473470    1.660516   -2.596886
  31 H     1.0000    0     1.008   -6.482392    0.333293   -1.014305
  32 C     6.0000    0    12.011   -8.722286    2.448684   -3.674884
  33 H     1.0000    0     1.008  -10.516808    1.711740   -2.961564
  34 C     6.0000    0    12.011   -8.724654    4.201923   -5.673255
  35 H     1.0000    0     1.008  -10.519682    4.803450   -6.503759
  36 C     6.0000    0    12.011   -6.481672    5.198586   -6.595263
  37 H     1.0000    0     1.008   -6.487638    6.583874   -8.130059
  38 C     6.0000    0    12.011   -4.212691    4.404300   -5.496508
  39 C     6.0000    0    12.011    0.129807    3.544053   -3.912052
  40 C     6.0000    0    12.011   -4.848408   -2.928917    2.266541
  41 C     6.0000    0    12.011   -4.367072   -1.849341    4.656811
  42 H     1.0000    0     1.008   -2.620952   -0.801792    4.965218
  43 C     6.0000    0    12.011   -6.024426   -2.184482    6.645099
  44 H     1.0000    0     1.008   -5.584464   -1.353388    8.485292
  45 C     6.0000    0    12.011   -8.236428   -3.603080    6.319584
  46 H     1.0000    0     1.008   -9.550923   -3.865786    7.891264
  47 C     6.0000    0    12.011   -8.728815   -4.697838    4.003927
  48 H     1.0000    0     1.008  -10.435168   -5.836584    3.773526
  49 C     6.0000    0    12.011   -7.065677   -4.405978    1.944876
  50 C     6.0000    0    12.011   -7.543560   -5.546085   -0.494144
  51 C     6.0000    0    12.011   -9.816961   -6.804501   -1.074122
  52 H     1.0000    0     1.008  -11.301226   -6.958652    0.351071
  53 C     6.0000    0    12.011  -10.219970   -7.824060   -3.441991
  54 H     1.0000    0     1.008  -12.001806   -8.786446   -3.852970
  55 C     6.0000    0    12.011   -8.376415   -7.586196   -5.331906
  56 H     1.0000    0     1.008   -8.725251   -8.328295   -7.227594
  57 C     6.0000    0    12.011   -6.128692   -6.375832   -4.804338
  58 H     1.0000    0     1.008   -4.765714   -6.118948   -6.331422
  59 C     6.0000    0    12.011   -5.647157   -5.374842   -2.376888
  60 C     6.0000    0    12.011   -3.331340   -4.047744   -1.798305
  61 C     6.0000    0    12.011    0.930153   -2.578450   -2.607480
  62 C     6.0000    0    12.011    3.206344   -3.204620   -3.935863
  63 C     6.0000    0    12.011    5.656188   -2.191854   -3.665572
  64 H     1.0000    0     1.008    5.989338   -0.669855   -2.310098
  65 C     6.0000    0    12.011    7.632746   -3.152016   -5.083891
  66 H     1.0000    0     1.008    9.530550   -2.362883   -4.865325
  67 C     6.0000    0    12.011    7.228614   -5.143222   -6.798152
  68 H     1.0000    0     1.008    8.812906   -5.877713   -7.904622
  69 C     6.0000    0    12.011    4.850026   -6.205692   -7.092849
  70 H     1.0000    0     1.008    4.543469   -7.773542   -8.405387
  71 C     6.0000    0    12.011    2.858003   -5.237894   -5.650200
  72 C     6.0000    0    12.011   -1.060106   -4.105028   -3.313280
  73 C     6.0000    0    12.011    1.872456   -2.466421    2.509575
  74 C     6.0000    0    12.011    4.441488   -5.762661    4.905255
  75 C     6.0000    0    12.011    5.457918   -7.831762    3.579336
  76 C     6.0000    0    12.011    6.884321   -9.560376    4.969804
  77 H     1.0000    0     1.008    7.703635  -11.190713    3.995697
  78 C     6.0000    0    12.011    7.268626   -9.227249    7.553182
  79 H     1.0000    0     1.008    8.394241  -10.605107    8.605514
  80 C     6.0000    0    12.011    6.235410   -7.156710    8.809750
  81 H     1.0000    0     1.008    6.545337   -6.906456   10.839469
  82 C     6.0000    0    12.011    4.793339   -5.370870    7.512156
  83 C     6.0000    0    12.011    5.015386   -8.119048    0.807726
  84 H     1.0000    0     1.008    5.901872   -9.852437    0.083361
  85 H     1.0000    0     1.008    5.793519   -6.499091   -0.256389
  86 H     1.0000    0     1.008    2.977288   -8.196634    0.364300
  87 C     6.0000    0    12.011    3.662497   -3.123765    8.789388
  88 H     1.0000    0     1.008    4.073473   -3.135197   10.825198
  89 H     1.0000    0     1.008    1.591025   -3.068360    8.544518
  90 H     1.0000    0     1.008    4.405759   -1.344391    7.989343
  91 C     6.0000    0    12.011   -1.369466    2.717447    2.559887
  92 C     6.0000    0    12.011   -3.040479    6.616910    4.847301
  93 C     6.0000    0    12.011   -2.462495    6.934263    7.423370
  94 C     6.0000    0    12.011   -3.426816    9.080257    8.614846
  95 H     1.0000    0     1.008   -3.014007    9.379924   10.619393
  96 C     6.0000    0    12.011   -4.888442   10.820596    7.285648
  97 H     1.0000    0     1.008   -5.625851   12.490324    8.255786
  98 C     6.0000    0    12.011   -5.416809   10.457705    4.732254
  99 H     1.0000    0     1.008   -6.561237   11.835394    3.697550
 100 C     6.0000    0    12.011   -4.503461    8.343041    3.447922
 101 C     6.0000    0    12.011   -0.870121    5.043133    8.781667
 102 H     1.0000    0     1.008   -1.696052    3.130447    8.677411
 103 H     1.0000    0     1.008   -0.656374    5.546327   10.785247
 104 H     1.0000    0     1.008    1.035345    4.915221    7.941043
 105 C     6.0000    0    12.011   -5.034463    7.893208    0.714262
 106 H     1.0000    0     1.008   -6.123703    9.460721   -0.105494
 107 H     1.0000    0     1.008   -6.121651    6.132819    0.431508
 108 H     1.0000    0     1.008   -3.270262    7.680503   -0.381931

--------------------------------
INTERNAL COORDINATES (ANGSTROEM)
--------------------------------
 Ir     0   0   0     0.000000000000     0.00000000     0.00000000
 S      1   0   0     4.553783225434     0.00000000     0.00000000
 S      1   2   0     4.553698389436    87.64435001     0.00000000
 N      1   2   3     2.131190848688    61.84621744   113.77565948
 N      1   2   3     2.132749983695   109.39785361   301.08796256
 N      1   2   3     3.203970821793   155.70926685    71.90552059
 N      1   2   3     3.207519128348    83.98976171   200.38279113
 C      4   1   2     1.391815208395   126.05686971   166.49740213
 C      8   4   1     1.411357258606   120.59637009   345.84814490
 H      9   8   4     1.089958689315   119.68597397   359.31554803
 C      9   8   4     1.380851582477   121.18754516   181.94025962
 H     11   9   8     1.094277636967   119.29959238   178.93628851
 C     11   9   8     1.401312114751   120.33114364   359.74014263
 H     13  11   9     1.093116938587   120.44886682   180.18452403
 C     13  11   9     1.380347322201   119.41520282     1.11093220
 H     15  13  11     1.092248344167   119.02051239   178.57254384
 C     15  13  11     1.409438578443   121.55426056   359.39348249
 C     17  15  13     1.447198585766   122.38149216   179.51197904
 C     18  17  15     1.408885676173   122.75015560     6.87656617
 H     19  18  17     1.091947768756   120.00962019   359.69731343
 C     19  18  17     1.380869086107   120.96783502   178.78760457
 H     21  19  18     1.093516676202   119.70047142   180.23622900
 C     21  19  18     1.402649884824   120.30077855   358.98355006
 H     23  21  19     1.092986422702   120.33168732   182.39962857
 C     23  21  19     1.379424248385   119.78601142     1.39163355
 H     25  23  21     1.091567229608   118.50074998   183.50929117
 C     25  23  21     1.412574853676   120.93579564     0.22851718
 C      4   1   2     1.340110158496   113.48927688   345.63029651
 C      1   2   3     2.065572389190    16.55937761   279.89781104
 C     29   1   2     1.433030293576   135.49637359   184.57642233
 C     30  29   1     1.409935909792   129.34000042     1.27902279
 H     31  30  29     1.092999289063   119.59017299   358.53482057
 C     31  30  29     1.384024712694   120.01755438   177.27923959
 H     33  31  30     1.093774990940   119.78965310   180.12331530
 C     33  31  30     1.406789072729   120.61973188   359.76927361
 H     35  33  31     1.093963985420   119.64708960   179.96872268
 C     35  33  31     1.387454259420   120.94891119   359.41855343
 H     37  35  33     1.094086859741   120.88205674   180.94734031
 C     37  35  33     1.398713238469   118.29123212     0.37005682
 C     29   1   2     1.379139431671   112.51435196     2.07464228
 C      5   1   2     1.391516756880   126.06758906   242.89920535
 C     41   5   1     1.411084099084   120.54927812   345.97285482
 H     42  41   5     1.089823635169   119.55170395   359.46981143
 C     42  41   5     1.381186322552   121.08049701   182.13448506
 H     44  42  41     1.093566555672   119.44009796   178.90642799
 C     44  42  41     1.401204301237   120.37116059   359.69486380
 H     46  44  42     1.093117859764   120.41051420   180.12859711
 C     46  44  42     1.380250824702   119.45279853     0.99520434
 H     48  46  44     1.092397247755   119.12128930   178.64675307
 C     48  46  44     1.409132880019   121.50564486   359.47354277
 C     50  48  46     1.446991365994   122.33435188   179.76446368
 C     51  50  48     1.408877730880   122.72551197     6.79798481
 H     52  51  50     1.091950570974   119.93771400   359.60903668
 C     52  51  50     1.380809408782   120.94717646   178.69108503
 H     54  52  51     1.093494665986   119.71159116   180.23728732
 C     54  52  51     1.402773945393   120.29767175   358.97595733
 H     56  54  52     1.092982386887   120.30839588   182.39688080
 C     56  54  52     1.379475709635   119.80366495     1.41097597
 H     58  56  54     1.091656038147   118.53464503   183.39357926
 C     58  56  54     1.412652159766   120.90794223     0.22885614
 C      5   1   2     1.339845217479   113.45765807    61.61639104
 C      1   2   3     2.065474574259    84.87172642    16.36724627
 C     62   1   2     1.433448415741   135.46304907    86.46279083
 C     63  62   1     1.410085273704   129.41567304     0.65355396
 H     64  63  62     1.092821837479   119.67005422   358.31842856
 C     64  63  62     1.384010169609   120.01787601   177.30071929
 H     66  64  63     1.093767687631   119.76181624   180.11438217
 C     66  64  63     1.406747350363   120.65030238   359.82157313
 H     68  66  64     1.093968676872   119.65411579   179.95836612
 C     68  66  64     1.387350267618   120.92812331   359.43624923
 H     70  68  66     1.094115693085   120.87619163   180.94410964
 C     70  68  66     1.398673015521   118.29643951     0.31661958
 C     62   1   2     1.378882362622   112.54663493   263.45906666
 C      6   1   2     1.169601085614     5.01571102   125.54955268
 C      6   1   2     1.380006435039   176.37597611   330.40334723
 C     75   6  74     1.407290088767   118.41240794   219.32810776
 C     76  75   6     1.395677439405   116.98692900   179.73156841
 H     77  76  75     1.094534428256   118.85223982   180.05491105
 C     77  76  75     1.393305326746   120.88308795     0.00000000
 H     79  77  76     1.093862484301   119.64624481   180.04196863
 C     79  77  76     1.393417918088   120.69273543     0.00000000
 H     81  79  77     1.094570876023   120.30579701   180.01716555
 C     81  79  77     1.395317302496   120.81876590     0.00000000
 C     76  75   6     1.493010591134   120.60115340     0.00000000
 H     84  76  75     1.099262703385   111.13604770   181.27960669
 H     84  76  75     1.105219005203   111.29026261    60.74882958
 H     84  76  75     1.104509562781   111.44719272   301.99704987
 C     83  81  79     1.492955935944   122.40322809   180.20866089
 H     88  83  81     1.099053058936   111.10362849   358.17401608
 H     88  83  81     1.104197628659   111.46519554   237.46560888
 H     88  83  81     1.104787366538   111.26341065   118.61165435
 C      7   1   2     1.169750926059     5.85183485   173.57495011
 C      7   1   2     1.380863999437   173.54647910     0.82524103
 C     93   7  92     1.407144787732   118.34177145   154.63398260
 C     94  93   7     1.395545822800   117.08562938   180.27767981
 H     95  94  93     1.094568650040   118.86555860   179.88350289
 C     95  94  93     1.393244011129   120.85030864   359.79828108
 H     97  95  94     1.093865937741   119.67247855   180.00372654
 C     97  95  94     1.393122123993   120.66121099   359.89820246
 H     99  97  95     1.094560137933   120.29268968   180.19801084
 C     99  97  95     1.395615602404   120.88704287     0.19330050
 C     94  93   7     1.492711255519   120.60904307     0.65663217
 H    102  94  93     1.103864254107   111.53936668   302.56017423
 H    102  94  93     1.099011519476   111.11286384   181.83251522
 H    102  94  93     1.104169721332   111.26083840    61.41655138
 C    101  99  97     1.492731277557   122.31689611   179.94519307
 H    106 101  99     1.099306172311   111.14843629     2.69471227
 H    106 101  99     1.105068276496   111.32422704   242.20018961
 H    106 101  99     1.104864071054   111.46809748   123.52185856

---------------------------
INTERNAL COORDINATES (A.U.)
---------------------------
 Ir     0   0   0     0.000000000000     0.00000000     0.00000000
 S      1   0   0     8.605403169314     0.00000000     0.00000000
 S      1   2   0     8.605242852512    87.64435001     0.00000000
 N      1   2   3     4.027367043140    61.84621744   113.77565948
 N      1   2   3     4.030313381308   109.39785361   301.08796256
 N      1   2   3     6.054627394263   155.70926685    71.90552059
 N      1   2   3     6.061332721892    83.98976171   200.38279113
 C      4   1   2     2.630149572894   126.05686971   166.49740213
 C      8   4   1     2.667078695888   120.59637009   345.84814490
 H      9   8   4     2.059723420094   119.68597397   359.31554803
 C      9   8   4     2.609431322473   121.18754516   181.94025962
 H     11   9   8     2.067885048342   119.29959238   178.93628851
 C     11   9   8     2.648096125026   120.33114364   359.74014263
 H     13  11   9     2.065691646280   120.44886682   180.18452403
 C     13  11   9     2.608478408651   119.41520282     1.11093220
 H     15  13  11     2.064050240705   119.02051239   178.57254384
 C     15  13  11     2.663452915840   121.55426056   359.39348249
 C     17  15  13     2.734808988495   122.38149216   179.51197904
 C     18  17  15     2.662408081971   122.75015560     6.87656617
 H     19  18  17     2.063482235495   120.00962019   359.69731343
 C     19  18  17     2.609464399540   120.96783502   178.78760457
 H     21  19  18     2.066447040897   119.70047142   180.23622900
 C     21  19  18     2.650624144094   120.30077855   358.98355006
 H     23  21  19     2.065445007000   120.33168732   182.39962857
 C     23  21  19     2.606734051938   119.78601142     1.39163355
 H     25  23  21     2.062763120721   118.50074998   183.50929117
 C     25  23  21     2.669379617112   120.93579564     0.22851718
 C      4   1   2     2.532441188843   113.48927688   345.63029651
 C      1   2   3     3.903366125359    16.55937761   279.89781104
 C     29   1   2     2.708034796472   135.49637359   184.57642233
 C     30  29   1     2.664392735887   129.34000042     1.27902279
 H     31  30  29     2.065469320900   119.59017299   358.53482057
 C     31  30  29     2.615427669572   120.01755438   177.27923959
 H     33  31  30     2.066935185008   119.78965310   180.12331530
 C     33  31  30     2.658446075650   120.61973188   359.76927361
 H     35  33  31     2.067292332817   119.64708960   179.96872268
 C     35  33  31     2.621908573646   120.94891119   359.41855343
 H     37  35  33     2.067524531633   120.88205674   180.94734031
 C     37  35  33     2.643184960597   118.29123212     0.37005682
 C     29   1   2     2.606195826350   112.51435196     2.07464228
 C      5   1   2     2.629585581265   126.06758906   242.89920535
 C     41   5   1     2.666562499201   120.54927812   345.97285482
 H     42  41   5     2.059468204745   119.55170395   359.46981143
 C     42  41   5     2.610063889542   121.08049701   182.13448506
 H     44  42  41     2.066541299435   119.44009796   178.90642799
 C     44  42  41     2.647892387011   120.37116059   359.69486380
 H     46  44  42     2.065693387051   120.41051420   180.12859711
 C     46  44  42     2.608296054805   119.45279853     0.99520434
 H     48  46  44     2.064331627706   119.12128930   178.64675307
 C     48  46  44     2.662875229539   121.50564486   359.47354277
 C     50  48  46     2.734417399878   122.33435188   179.76446368
 C     51  50  48     2.662393067544   122.72551197     6.79798481
 H     52  51  50     2.063487530919   119.93771400   359.60903668
 C     52  51  50     2.609351625740   120.94717646   178.69108503
 H     54  52  51     2.066405447617   119.71159116   180.23728732
 C     54  52  51     2.650858584593   120.29767175   358.97595733
 H     56  54  52     2.065437380416   120.30839588   182.39688080
 C     56  54  52     2.606831299608   119.80366495     1.41097597
 H     58  56  54     2.062930944539   118.53464503   183.39357926
 C     58  56  54     2.669525704450   120.90794223     0.22885614
 C      5   1   2     2.531940522879   113.45765807    61.61639104
 C      1   2   3     3.903181281926    84.87172642    16.36724627
 C     62   1   2     2.708824932853   135.46304907    86.46279083
 C     63  62   1     2.664674992776   129.41567304     0.65355396
 H     64  63  62     2.065133986003   119.67005422   358.31842856
 C     64  63  62     2.615400187123   120.01787601   177.30071929
 H     66  64  63     2.066921383755   119.76181624   180.11438217
 C     66  64  63     2.658367231806   120.65030238   359.82157313
 H     68  66  64     2.067301198377   119.65411579   179.95836612
 C     68  66  64     2.621712057620   120.92812331   359.43624923
 H     70  68  66     2.067579018755   120.87619163   180.94410964
 C     70  68  66     2.643108950241   118.29643951     0.31661958
 C     62   1   2     2.605710036249   112.54663493   263.45906666
 C      6   1   2     2.210225737748     5.01571102   125.54955268
 C      6   1   2     2.607834225273   176.37597611   330.40334723
 C     75   6  74     2.659392858751   118.41240794   219.32810776
 C     76  75   6     2.637448131769   116.98692900   179.73156841
 H     77  76  75     2.068370313552   118.85223982   180.05491105
 C     77  76  75     2.632965488484   120.88308795     0.00000000
 H     79  77  76     2.067100523499   119.64624481   180.04196863
 C     79  77  76     2.633178255285   120.69273543     0.00000000
 H     81  79  77     2.068439189850   120.30579701   180.01716555
 C     81  79  77     2.636767571640   120.81876590     0.00000000
 C     76  75   6     2.821381132287   120.60115340     0.00000000
 H     84  76  75     2.077305458631   111.13604770   181.27960669
 H     84  76  75     2.088561237838   111.29026261    60.74882958
 H     84  76  75     2.087220585953   111.44719272   301.99704987
 C     83  81  79     2.821277848945   122.40322809   180.20866089
 H     88  83  81     2.076909288038   111.10362849   358.17401608
 H     88  83  81     2.086631115892   111.46519554   237.46560888
 H     88  83  81     2.087745558972   111.26341065   118.61165435
 C      7   1   2     2.210508895153     5.85183485   173.57495011
 C      7   1   2     2.609454787127   173.54647910     0.82524103
 C     93   7  92     2.659118279588   118.34177145   154.63398260
 C     94  93   7     2.637199412429   117.08562938   180.27767981
 H     95  94  93     2.068434983352   118.86555860   179.88350289
 C     95  94  93     2.632849618759   120.85030864   359.79828108
 H     97  95  94     2.067107049555   119.67247855   180.00372654
 C     97  95  94     2.632619285454   120.66121099   359.89820246
 H     99  97  95     2.068418897801   120.29268968   180.19801084
 C     99  97  95     2.637331276771   120.88704287     0.19330050
 C     94  93   7     2.820815469953   120.60904307     0.65663217
 H    102  94  93     2.086001129288   111.53936668   302.56017423
 H    102  94  93     2.076830789835   111.11286384   181.83251522
 H    102  94  93     2.086578378685   111.26083840    61.41655138
 C    101  99  97     2.820853306122   122.31689611   179.94519307
 H    106 101  99     2.077387602997   111.14843629     2.69471227
 H    106 101  99     2.088276401862   111.32422704   242.20018961
 H    106 101  99     2.087890509501   111.46809748   123.52185856

---------------------
BASIS SET INFORMATION
---------------------
There are 5 groups of distinct atoms

 Group   1 Type Ir  : 22s15p11d6f contracted to 17s11p8d3f pattern {61111111111111111/51111111111/41111111/411}
 Group   2 Type S   : 10s7p1d contracted to 6s3p1d pattern {511111/511/1}
 Group   3 Type N   : 7s4p1d contracted to 3s2p1d pattern {511/31/1}
 Group   4 Type C   : 7s4p1d contracted to 3s2p1d pattern {511/31/1}
 Group   5 Type H   : 4s1p contracted to 2s1p pattern {31/1}

Atom   0Ir   basis set group =>   1
Atom   1S    basis set group =>   2
Atom   2S    basis set group =>   2
Atom   3N    basis set group =>   3
Atom   4N    basis set group =>   3
Atom   5N    basis set group =>   3
Atom   6N    basis set group =>   3
Atom   7C    basis set group =>   4
Atom   8C    basis set group =>   4
Atom   9H    basis set group =>   5
Atom  10C    basis set group =>   4
Atom  11H    basis set group =>   5
Atom  12C    basis set group =>   4
Atom  13H    basis set group =>   5
Atom  14C    basis set group =>   4
Atom  15H    basis set group =>   5
Atom  16C    basis set group =>   4
Atom  17C    basis set group =>   4
Atom  18C    basis set group =>   4
Atom  19H    basis set group =>   5
Atom  20C    basis set group =>   4
Atom  21H    basis set group =>   5
Atom  22C    basis set group =>   4
Atom  23H    basis set group =>   5
Atom  24C    basis set group =>   4
Atom  25H    basis set group =>   5
Atom  26C    basis set group =>   4
Atom  27C    basis set group =>   4
Atom  28C    basis set group =>   4
Atom  29C    basis set group =>   4
Atom  30C    basis set group =>   4
Atom  31H    basis set group =>   5
Atom  32C    basis set group =>   4
Atom  33H    basis set group =>   5
Atom  34C    basis set group =>   4
Atom  35H    basis set group =>   5
Atom  36C    basis set group =>   4
Atom  37H    basis set group =>   5
Atom  38C    basis set group =>   4
Atom  39C    basis set group =>   4
Atom  40C    basis set group =>   4
Atom  41C    basis set group =>   4
Atom  42H    basis set group =>   5
Atom  43C    basis set group =>   4
Atom  44H    basis set group =>   5
Atom  45C    basis set group =>   4
Atom  46H    basis set group =>   5
Atom  47C    basis set group =>   4
Atom  48H    basis set group =>   5
Atom  49C    basis set group =>   4
Atom  50C    basis set group =>   4
Atom  51C    basis set group =>   4
Atom  52H    basis set group =>   5
Atom  53C    basis set group =>   4
Atom  54H    basis set group =>   5
Atom  55C    basis set group =>   4
Atom  56H    basis set group =>   5
Atom  57C    basis set group =>   4
Atom  58H    basis set group =>   5
Atom  59C    basis set group =>   4
Atom  60C    basis set group =>   4
Atom  61C    basis set group =>   4
Atom  62C    basis set group =>   4
Atom  63C    basis set group =>   4
Atom  64H    basis set group =>   5
Atom  65C    basis set group =>   4
Atom  66H    basis set group =>   5
Atom  67C    basis set group =>   4
Atom  68H    basis set group =>   5
Atom  69C    basis set group =>   4
Atom  70H    basis set group =>   5
Atom  71C    basis set group =>   4
Atom  72C    basis set group =>   4
Atom  73C    basis set group =>   4
Atom  74C    basis set group =>   4
Atom  75C    basis set group =>   4
Atom  76C    basis set group =>   4
Atom  77H    basis set group =>   5
Atom  78C    basis set group =>   4
Atom  79H    basis set group =>   5
Atom  80C    basis set group =>   4
Atom  81H    basis set group =>   5
Atom  82C    basis set group =>   4
Atom  83C    basis set group =>   4
Atom  84H    basis set group =>   5
Atom  85H    basis set group =>   5
Atom  86H    basis set group =>   5
Atom  87C    basis set group =>   4
Atom  88H    basis set group =>   5
Atom  89H    basis set group =>   5
Atom  90H    basis set group =>   5
Atom  91C    basis set group =>   4
Atom  92C    basis set group =>   4
Atom  93C    basis set group =>   4
Atom  94C    basis set group =>   4
Atom  95H    basis set group =>   5
Atom  96C    basis set group =>   4
Atom  97H    basis set group =>   5
Atom  98C    basis set group =>   4
Atom  99H    basis set group =>   5
Atom 100C    basis set group =>   4
Atom 101C    basis set group =>   4
Atom 102H    basis set group =>   5
Atom 103H    basis set group =>   5
Atom 104H    basis set group =>   5
Atom 105C    basis set group =>   4
Atom 106H    basis set group =>   5
Atom 107H    basis set group =>   5
Atom 108H    basis set group =>   5
---------------------------------
AUXILIARY/J BASIS SET INFORMATION
---------------------------------
There are 5 groups of distinct atoms

 Group   1 Type Ir  : 30s10p8d6f5g contracted to 30s10p8d6f5g pattern {111111111111111111111111111111/1111111111/11111111/111111/11111}
 Group   2 Type S   : 14s5p5d2f1g contracted to 14s5p5d2f1g pattern {11111111111111/11111/11111/11/1}
 Group   3 Type N   : 12s5p4d2f1g contracted to 12s5p4d2f1g pattern {111111111111/11111/1111/11/1}
 Group   4 Type C   : 12s5p4d2f1g contracted to 12s5p4d2f1g pattern {111111111111/11111/1111/11/1}
 Group   5 Type H   : 5s2p1d contracted to 5s2p1d pattern {11111/11/1}

Atom   0Ir   basis set group =>   1
Atom   1S    basis set group =>   2
Atom   2S    basis set group =>   2
Atom   3N    basis set group =>   3
Atom   4N    basis set group =>   3
Atom   5N    basis set group =>   3
Atom   6N    basis set group =>   3
Atom   7C    basis set group =>   4
Atom   8C    basis set group =>   4
Atom   9H    basis set group =>   5
Atom  10C    basis set group =>   4
Atom  11H    basis set group =>   5
Atom  12C    basis set group =>   4
Atom  13H    basis set group =>   5
Atom  14C    basis set group =>   4
Atom  15H    basis set group =>   5
Atom  16C    basis set group =>   4
Atom  17C    basis set group =>   4
Atom  18C    basis set group =>   4
Atom  19H    basis set group =>   5
Atom  20C    basis set group =>   4
Atom  21H    basis set group =>   5
Atom  22C    basis set group =>   4
Atom  23H    basis set group =>   5
Atom  24C    basis set group =>   4
Atom  25H    basis set group =>   5
Atom  26C    basis set group =>   4
Atom  27C    basis set group =>   4
Atom  28C    basis set group =>   4
Atom  29C    basis set group =>   4
Atom  30C    basis set group =>   4
Atom  31H    basis set group =>   5
Atom  32C    basis set group =>   4
Atom  33H    basis set group =>   5
Atom  34C    basis set group =>   4
Atom  35H    basis set group =>   5
Atom  36C    basis set group =>   4
Atom  37H    basis set group =>   5
Atom  38C    basis set group =>   4
Atom  39C    basis set group =>   4
Atom  40C    basis set group =>   4
Atom  41C    basis set group =>   4
Atom  42H    basis set group =>   5
Atom  43C    basis set group =>   4
Atom  44H    basis set group =>   5
Atom  45C    basis set group =>   4
Atom  46H    basis set group =>   5
Atom  47C    basis set group =>   4
Atom  48H    basis set group =>   5
Atom  49C    basis set group =>   4
Atom  50C    basis set group =>   4
Atom  51C    basis set group =>   4
Atom  52H    basis set group =>   5
Atom  53C    basis set group =>   4
Atom  54H    basis set group =>   5
Atom  55C    basis set group =>   4
Atom  56H    basis set group =>   5
Atom  57C    basis set group =>   4
Atom  58H    basis set group =>   5
Atom  59C    basis set group =>   4
Atom  60C    basis set group =>   4
Atom  61C    basis set group =>   4
Atom  62C    basis set group =>   4
Atom  63C    basis set group =>   4
Atom  64H    basis set group =>   5
Atom  65C    basis set group =>   4
Atom  66H    basis set group =>   5
Atom  67C    basis set group =>   4
Atom  68H    basis set group =>   5
Atom  69C    basis set group =>   4
Atom  70H    basis set group =>   5
Atom  71C    basis set group =>   4
Atom  72C    basis set group =>   4
Atom  73C    basis set group =>   4
Atom  74C    basis set group =>   4
Atom  75C    basis set group =>   4
Atom  76C    basis set group =>   4
Atom  77H    basis set group =>   5
Atom  78C    basis set group =>   4
Atom  79H    basis set group =>   5
Atom  80C    basis set group =>   4
Atom  81H    basis set group =>   5
Atom  82C    basis set group =>   4
Atom  83C    basis set group =>   4
Atom  84H    basis set group =>   5
Atom  85H    basis set group =>   5
Atom  86H    basis set group =>   5
Atom  87C    basis set group =>   4
Atom  88H    basis set group =>   5
Atom  89H    basis set group =>   5
Atom  90H    basis set group =>   5
Atom  91C    basis set group =>   4
Atom  92C    basis set group =>   4
Atom  93C    basis set group =>   4
Atom  94C    basis set group =>   4
Atom  95H    basis set group =>   5
Atom  96C    basis set group =>   4
Atom  97H    basis set group =>   5
Atom  98C    basis set group =>   4
Atom  99H    basis set group =>   5
Atom 100C    basis set group =>   4
Atom 101C    basis set group =>   4
Atom 102H    basis set group =>   5
Atom 103H    basis set group =>   5
Atom 104H    basis set group =>   5
Atom 105C    basis set group =>   4
Atom 106H    basis set group =>   5
Atom 107H    basis set group =>   5
Atom 108H    basis set group =>   5


           ************************************************************
           *        Program running with 8 parallel MPI-processes     *
           *              working on a common directory               *
           ************************************************************
------------------------------------------------------------------------------
                           ORCA GTO INTEGRAL CALCULATION
                           -- RI-GTO INTEGRALS CHOSEN --
------------------------------------------------------------------------------
------------------------------------------------------------------------------
                   ___                                                        
                  /   \      - P O W E R E D   B Y -                         
                 /     \                                                     
                 |  |  |   _    _      __       _____    __    __             
                 |  |  |  | |  | |    /  \     |  _  \  |  |  /  |          
                  \  \/   | |  | |   /    \    | | | |  |  | /  /          
                 / \  \   | |__| |  /  /\  \   | |_| |  |  |/  /          
                |  |  |   |  __  | /  /__\  \  |    /   |      \           
                |  |  |   | |  | | |   __   |  |    \   |  |\   \          
                \     /   | |  | | |  |  |  |  | |\  \  |  | \   \       
                 \___/    |_|  |_| |__|  |__|  |_| \__\ |__|  \__/        
                                                                              
                      - O R C A' S   B I G   F R I E N D -                    
                                      &                                       
                       - I N T E G R A L  F E E D E R -                       
                                                                              
 v1 FN, 2020, v2 2021                                                         
------------------------------------------------------------------------------


Reading SHARK input file Ir_isoCN_5_SOC-M06_def2SVP.SHARKINP.tmp ... ok
----------------------
SHARK INTEGRAL PACKAGE
----------------------

Number of atoms                             ...    109
Number of basis functions                   ...   1257
Number of shells                            ...    569
Maximum angular momentum                    ...      3
Integral batch strategy                     ... SHARK/LIBINT Hybrid
RI-J (if used) integral strategy            ... SPLIT-RIJ (Revised 2003 algorithm where possible)
Printlevel                                  ...      1
Contraction scheme used                     ... SEGMENTED contraction
Coulomb Range Separation                    ... NOT USED
Exchange Range Separation                   ... NOT USED
Finite Nucleus Model                        ... NOT USED
Auxiliary Coulomb fitting basis             ... AVAILABLE
   # of basis functions in Aux-J            ...   5493
   # of shells in Aux-J                     ...   1985
   Maximum angular momentum in Aux-J        ...      4
Auxiliary J/K fitting basis                 ... NOT available
Auxiliary Correlation fitting basis         ... NOT available
Auxiliary 'external' fitting basis          ... NOT available
Integral threshold                          ...     1.000000e-10
Primitive cut-off                           ...     1.000000e-11
Primitive pair pre-selection threshold      ...     1.000000e-11

Calculating pre-screening integrals         ... done (  0.1 sec) Dimension = 569
Organizing shell pair data                  ... done (  0.3 sec)
Shell pair information
Total number of shell pairs                 ...    162165
Shell pairs after pre-screening             ...     78530
Total number of primitive shell pairs       ...    571881
Primitive shell pairs kept                  ...    154073
          la=0 lb=0:  22871 shell pairs
          la=1 lb=0:  28977 shell pairs
          la=1 lb=1:   9328 shell pairs
          la=2 lb=0:   9388 shell pairs
          la=2 lb=1:   6028 shell pairs
          la=2 lb=2:    836 shell pairs
          la=3 lb=0:    601 shell pairs
          la=3 lb=1:    371 shell pairs
          la=3 lb=2:    124 shell pairs
          la=3 lb=3:      6 shell pairs

Calculating one electron integrals          ... done (  0.2 sec)
Calculating RI/J V-Matrix + Cholesky decomp.... done (  2.1 sec)
Calculating Nuclear repulsion               ... done (  0.0 sec) ENN=  14767.145569331906 Eh

SHARK setup successfully completed in   3.7 seconds

Maximum memory used throughout the entire GTOINT-calculation: 183.4 MB


           ************************************************************
           *        Program running with 8 parallel MPI-processes     *
           *              working on a common directory               *
           ************************************************************
------------------------------------------------------------------------------
                          ORCA RELATIVISTIC HAMILTONIAN
------------------------------------------------------------------------------

Relativistic Method            ... ZORA(MP)
Treatment of potential         ... Van Wuellen
Nucleus model                  ... Point Nucleus
Speed of light used            ... 137.03598950000000


            *************************************************
            *         ZERO ORDER REGULAR APPROXIMATION      *
            *                     ZORA(MP)                  *
            *            Programmed by FN according to      *
            *                   C. van Wuellen              *
            *       J. Chem. Phys. (1998) vol 109, 392-399  *
            *************************************************

Terms included in model potential: +V(e,N)+V(C)+V(Xa)+V(VWN-V)
Basis function cutoff value   ... 1.000000e-10
Loading the fitted atomic densities (ZORA)   ... done
Calculating the cutoffs                      ... done
Number of fit functions                      ... 975
Setting up the integration grid ... done

Maximum memory used throughout the entire REL-calculation: 408.2 MB


           ************************************************************
           *        Program running with 8 parallel MPI-processes     *
           *              working on a common directory               *
           ************************************************************
-------------------------------------------------------------------------------
                                 ORCA SCF
-------------------------------------------------------------------------------

------------
SCF SETTINGS
------------
Hamiltonian:
 Density Functional     Method          .... DFT(GTOs)
 Exchange Functional    Exchange        .... M06
 Correlation Functional Correlation     .... M06
 Gradients option       PostSCFGGA      .... off
 Hybrid DFT is turned on
   Fraction HF Exchange ScalHFX         ....  0.270000
   Scaling of DF-GGA-X  ScalDFX         ....  0.730000
   Scaling of DF-GGA-C  ScalDFC         ....  1.000000
   Scaling of DF-LDA-C  ScalLDAC        ....  1.000000
   Perturbative correction              ....  0.000000
   Density functional embedding theory  .... OFF
 RI-approximation to the Coulomb term is turned on
   Number of AuxJ basis functions       .... 5493
   RIJ-COSX (HFX calculated with COS-X)).... on

Relativistic Settings:
 Scalar relativistic method             .... ZORA
 Speed of light used       Velit        ....       137.035989
Orbital energies will be scaled


General Settings:
 Integral files         IntName         .... Ir_isoCN_5_SOC-M06_def2SVP
 Hartree-Fock type      HFTyp           .... RHF
 Total Charge           Charge          ....    1
 Multiplicity           Mult            ....    1
 Number of Electrons    NEL             ....  538
 Basis Dimension        Dim             .... 1257
 Nuclear Repulsion      ENuc            ....  14767.1455693319 Eh

Convergence Acceleration:
 DIIS                   CNVDIIS         .... on
   Start iteration      DIISMaxIt       ....    12
   Startup error        DIISStart       ....  0.200000
   # of expansion vecs  DIISMaxEq       ....     5
   Bias factor          DIISBfac        ....   1.050
   Max. coefficient     DIISMaxC        ....  10.000
 Trust-Rad. Augm. Hess. CNVTRAH         .... auto
   Auto Start mean grad. ratio tolernc. ....  1.125000
   Auto Start start iteration           ....    20
   Auto Start num. interpolation iter.  ....    10
   Max. Number of Micro iterations      ....    16
   Max. Number of Macro iterations      .... Maxiter - #DIIS iter
   Number of Davidson start vectors     ....     2
   Converg. threshold I  (grad. norm)   ....   5.000e-05
   Converg. threshold II (energy diff.) ....   1.000e-06
   Grad. Scal. Fac. for Micro threshold ....   0.100
   Minimum threshold for Micro iter.    ....   0.010
   NR start threshold (gradient norm)   ....   0.001
   Initial trust radius                 ....   0.400
   Minimum AH scaling param. (alpha)    ....   1.000
   Maximum AH scaling param. (alpha)    .... 1000.000
   Orbital update algorithm             .... Taylor
   White noise on init. David. guess    .... on
   Maximum white noise                  ....   0.010
   Quad. conv. algorithm                .... NR
 SOSCF                  CNVSOSCF        .... off
 Level Shifting         CNVShift        .... on
   Level shift para.    LevelShift      ....    0.2500
   Turn off err/grad.   ShiftErr        ....    0.0010
 Zerner damping         CNVZerner       .... off
 Static damping         CNVDamp         .... on
   Fraction old density DampFac         ....    0.7000
   Max. Damping (<1)    DampMax         ....    0.9800
   Min. Damping (>=0)   DampMin         ....    0.0000
   Turn off err/grad.   DampErr         ....    0.1000
 Fernandez-Rico         CNVRico         .... off

SCF Procedure:
 Maximum # iterations   MaxIter         ....   125
 SCF integral mode      SCFMode         .... Direct
   Integral package                     .... SHARK and LIBINT hybrid scheme
 Reset frequency        DirectResetFreq ....    20
 Integral Threshold     Thresh          ....  1.000e-10 Eh
 Primitive CutOff       TCut            ....  1.000e-11 Eh

Convergence Tolerance:
 Convergence Check Mode ConvCheckMode   .... Total+1el-Energy
 Convergence forced     ConvForced      .... 1
 Energy Change          TolE            ....  1.000e-06 Eh
 1-El. energy change                    ....  1.000e-03 Eh
 DIIS Error             TolErr          ....  1.000e-06


Diagonalization of the overlap matrix:
Smallest eigenvalue                        ... 1.951e-04
Time for diagonalization                   ...    0.251 sec
Threshold for overlap eigenvalues          ... 1.000e-08
Number of eigenvalues below threshold      ... 0
Time for construction of square roots      ...    0.190 sec
Total time needed                          ...    0.446 sec

Time for model grid setup =    1.404 sec

------------------------------
INITIAL GUESS: MODEL POTENTIAL
------------------------------
Loading ZORA relativistic densities                ... done
Calculating cut-offs                               ... done
Initializing the effective Hamiltonian             ... done
Setting up the integral package (SHARK)            ... done
Starting the Coulomb interaction                   ... done (   1.7 sec)
Reading the grid                                   ... done
Mapping shells                                     ... done
Starting the XC term evaluation                    ... done (   0.5 sec)
  promolecular density results
     # of electrons  =    538.970809505
     EX              =   -742.724073162
     EC              =    -20.457316378
     EX+EC           =   -763.181389540
Transforming the Hamiltonian                       ... done (   0.1 sec)
Diagonalizing the Hamiltonian                      ... done (   0.2 sec)
Back transforming the eigenvectors                 ... done (   0.1 sec)
Now organizing SCF variables                       ... done
                      ------------------
                      INITIAL GUESS DONE (   4.0 sec)
                      ------------------
-------------------
DFT GRID GENERATION
-------------------

General Integration Accuracy     IntAcc      ... 4.959
Radial Grid Type                 RadialGrid  ... OptM3 with GC (2021)
Angular Grid (max. ang.)         AngularGrid ... 6 (Lebedev-590)
Angular grid pruning method      GridPruning ... 4 (adaptive)
Weight generation scheme         WeightScheme... Becke
Basis function cutoff            BFCut       ... 1.0000e-10
Integration weight cutoff        WCut        ... 1.0000e-14
Angular grids for H and He will be reduced by one unit
Partially contracted basis set               ... off
Rotationally invariant grid construction     ... off

Total number of grid points                  ...  1335733
Total number of batches                      ...    20928
Average number of points per batch           ...       63
Average number of grid points per atom       ...    12254
Time for grid setup =   20.062 sec

--------------------
COSX GRID GENERATION
--------------------

GRIDX 1
-------
General Integration Accuracy     IntAcc      ... 4.020
Radial Grid Type                 RadialGrid  ... OptM3 with GC (2021)
Angular Grid (max. ang.)         AngularGrid ... 2 (Lebedev-110)
Angular grid pruning method      GridPruning ... 4 (adaptive)
Weight generation scheme         WeightScheme... Becke
Basis function cutoff            BFCut       ... 1.0000e-10
Integration weight cutoff        WCut        ... 1.0000e-14
Angular grids for H and He will be reduced by one unit
Partially contracted basis set               ... on
Rotationally invariant grid construction     ... off

Total number of grid points                  ...   148525
Total number of batches                      ...     2374
Average number of points per batch           ...       62
Average number of grid points per atom       ...     1363
UseSFitting                                  ... on

GRIDX 2
-------
General Integration Accuracy     IntAcc      ... 4.338
Radial Grid Type                 RadialGrid  ... OptM3 with GC (2021)
Angular Grid (max. ang.)         AngularGrid ... 3 (Lebedev-194)
Angular grid pruning method      GridPruning ... 4 (adaptive)
Weight generation scheme         WeightScheme... Becke
Basis function cutoff            BFCut       ... 1.0000e-10
Integration weight cutoff        WCut        ... 1.0000e-14
Angular grids for H and He will be reduced by one unit
Partially contracted basis set               ... on
Rotationally invariant grid construction     ... off

Total number of grid points                  ...   321756
Total number of batches                      ...     5085
Average number of points per batch           ...       63
Average number of grid points per atom       ...     2952
UseSFitting                                  ... on

GRIDX 3
-------
General Integration Accuracy     IntAcc      ... 4.871
Radial Grid Type                 RadialGrid  ... OptM3 with GC (2021)
Angular Grid (max. ang.)         AngularGrid ... 4 (Lebedev-302)
Angular grid pruning method      GridPruning ... 4 (adaptive)
Weight generation scheme         WeightScheme... Becke
Basis function cutoff            BFCut       ... 1.0000e-10
Integration weight cutoff        WCut        ... 1.0000e-14
Angular grids for H and He will be reduced by one unit
Partially contracted basis set               ... on
Rotationally invariant grid construction     ... off

Total number of grid points                  ...   591437
Total number of batches                      ...     9300
Average number of points per batch           ...       63
Average number of grid points per atom       ...     5426
UseSFitting                                  ... on

Time for X-Grid setup             =   12.111 sec


--------------------
CPCM SOLVATION MODEL
--------------------
CPCM parameters:
  Epsilon                                         ...      35.6880
  Refrac                                          ...       1.3442
  Rsolv                                           ...       1.3000
  Surface type                                    ... GAUSSIAN VDW
  Epsilon function type                           ...         CPCM
Solvent:                                     ... ACETONITRILE
SMD-CDS solvent descriptors:
  Soln                                       ...    1.3442
  Soln25                                     ...    1.3416
  Sola                                       ...    0.0700
  Solb                                       ...    0.3200
  Solg                                       ...   41.2500
  Solc                                       ...    0.0000
  Solh                                       ...    0.0000
Radii:
 Radius for Ir used is    3.8172 Bohr (=   2.0200 Ang.)
 Radius for S  used is    4.7054 Bohr (=   2.4900 Ang.)
 Radius for N  used is    3.5716 Bohr (=   1.8900 Ang.)
 Radius for C  used is    3.4960 Bohr (=   1.8500 Ang.)
 Radius for H  used is    2.2677 Bohr (=   1.2000 Ang.)
Calculating surface                               ...        done! (  0.0s)
GEPOL surface points                              ...         5960
GEPOL Volume                                      ...    6248.6482
GEPOL Surface-area                                ...    3080.0127
Calculating surface distance matrix               ...        done! (  0.2s)
Performing Cholesky decomposition & store         ...        done! (  1.7s)
Overall time for CPCM initialization              ...                 1.9s
--------------
SCF ITERATIONS
--------------
ITER       Energy         Delta-E        Max-DP      RMS-DP      [F,P]     Damp
               ***  Starting incremental Fock matrix formation  ***
  0 -21743.6084439349   0.000000000000 0.06881632  0.00078112  1.2976115 0.7000
  1 -21744.1270997412  -0.518655806260 0.04277636  0.00054345  0.9095022 0.7000
  2 -21744.3415291561  -0.214429414915 0.03322516  0.00031086  0.6369815 0.7000
  3 -21744.4682646876  -0.126735531452 0.02492749  0.00018353  0.4459177 0.7000
  4 -21744.5557691835  -0.087504495914 0.01576964  0.00011803  0.3121511 0.7000
  5 -21744.6172103616  -0.061441178106 0.01107329  0.00008126  0.2185308 0.7000
                               ***Turning on DIIS***
  6 -21744.6603863789  -0.043176017283 0.00744868  0.00005711  0.1529910 0.7000
  7 -21744.6906393850  -0.030253006164 0.00702314  0.00004163  0.1071000 0.7000
  8 -21744.7118429951  -0.021203610089 0.01488738  0.00010344  0.0749567 0.0000
  9 -21744.7615357982  -0.049692803128 0.00287303  0.00001307  0.0018599 0.0000
 10 -21744.7615469460  -0.000011147782 0.00126052  0.00000606  0.0028116 0.0000
               *** Restarting incremental Fock matrix formation ***
                                   *** Resetting DIIS ***
 11 -21744.7615779286  -0.000030982559 0.00080255  0.00000811  0.0004184 0.0000
 12 -21744.7615833952  -0.000005466660 0.00035057  0.00000264  0.0009256 0.0000
 13 -21744.7615882043  -0.000004809059 0.00030582  0.00000227  0.0001430 0.0000
 14 -21744.7615886364  -0.000000432086 0.00012166  0.00000124  0.0001365 0.0000
 15 -21744.7615885971   0.000000039301 0.00004542  0.00000042  0.0000473 0.0000
 16 -21744.7615881829   0.000000414148 0.00003529  0.00000031  0.0000132 0.0000
 17 -21744.7615868502   0.000001332784 0.00001803  0.00000020  0.0000067 0.0000
 18 -21744.7615870574  -0.000000207227 0.00003860  0.00000015  0.0000043 0.0000
                 **** Energy Check signals convergence ****

               *****************************************************
               *                     SUCCESS                       *
               *           SCF CONVERGED AFTER  19 CYCLES          *
               *****************************************************

Old exchange energy                            =   -202.262800435 Eh
New exchange energy                            =   -202.262763993 Eh
Exchange energy change after final integration =      0.000036442 Eh
Total energy after final integration           = -21744.761549733 Eh
Final COS-X integration done in                =   137.901 sec

SMD CDS free energy correction energy :               -13.28601     Kcal/mol
Total Energy after SMD CDS correction =            -21744.782722329 Eh

----------------
TOTAL SCF ENERGY
----------------

Total Energy       :       -21744.78272233 Eh         -591705.61961 eV

Components:
Nuclear Repulsion  :        14767.14556933 Eh          401834.45981 eV
Electronic Energy  :       -36511.92829166 Eh         -993540.07942 eV
One Electron Energy:       -58965.40100138 Eh        -1604530.13398 eV
Two Electron Energy:        22453.47270972 Eh          610990.05457 eV
Max COSX asymmetry :            0.00000677 Eh               0.00018 eV
CPCM Dielectric    :           -0.07643818 Eh              -2.07999 eV
SMD CDS (Gcds)     :           -0.02117260 Eh              -0.57614 eV

Virial components:
Potential Energy   :       -45564.46515164 Eh        -1239872.13066 eV
Kinetic Energy     :        23819.68242931 Eh          648166.51105 eV
Virial Ratio       :            1.91289138


DFT components:
N(Alpha)           :      268.999914160747 electrons
N(Beta)            :      268.999914160747 electrons
N(Total)           :      537.999828321494 electrons
E(XC)              :     -568.416908655718 Eh       
DFET-embed. en.    :        0.000000000000 Eh       
CPCM Solvation Model Properties:
Surface-charge          :           -1.07449620
Charge-correction       :            0.00579856 Eh               0.15779 eV
Free-energy (cav+disp)  :           -0.02117260 Eh              -0.57614 eV

---------------
SCF CONVERGENCE
---------------

  Last Energy change         ...    8.8224e-07  Tolerance :   1.0000e-06
  Last MAX-Density change    ...    0.0000e+00  Tolerance :   1.0000e-05
  Last RMS-Density change    ...    0.0000e+00  Tolerance :   1.0000e-06
  Last DIIS Error            ...    4.3180e-06  Tolerance :   1.0000e-06

             **** THE GBW FILE WAS UPDATED (Ir_isoCN_5_SOC-M06_def2SVP.gbw) ****
             **** DENSITY Ir_isoCN_5_SOC-M06_def2SVP.scfp WAS UPDATED ****
             **** ENERGY FILE WAS UPDATED (Ir_isoCN_5_SOC-M06_def2SVP.en.tmp) ****
             **** THE GBW FILE WAS UPDATED (Ir_isoCN_5_SOC-M06_def2SVP.gbw) ****
             **** DENSITY Ir_isoCN_5_SOC-M06_def2SVP.scfp WAS UPDATED ****
----------------
ORBITAL ENERGIES
----------------

  NO   OCC          E(Eh)            E(eV) 
   0   2.0000   -3056.540096    -83172.6844 
   1   2.0000    -501.000908    -13632.9278 
   2   2.0000    -434.442872    -11821.7916 
   3   2.0000    -434.442352    -11821.7774 
   4   2.0000    -434.442289    -11821.7757 
   5   2.0000    -116.564743     -3171.8879 
   6   2.0000     -97.351522     -2649.0696 
   7   2.0000     -97.350276     -2649.0357 
   8   2.0000     -97.349868     -2649.0246 
   9   2.0000     -89.636915     -2439.1444 
  10   2.0000     -89.636819     -2439.1419 
  11   2.0000     -76.304807     -2076.3594 
  12   2.0000     -76.304263     -2076.3446 
  13   2.0000     -76.303824     -2076.3326 
  14   2.0000     -76.301686     -2076.2744 
  15   2.0000     -76.300999     -2076.2557 
  16   2.0000     -25.201075      -685.7561 
  17   2.0000     -18.890497      -514.0365 
  18   2.0000     -18.886722      -513.9338 
  19   2.0000     -18.886369      -513.9242 
  20   2.0000     -14.476806      -393.9339 
  21   2.0000     -14.476381      -393.9223 
  22   2.0000     -14.464797      -393.6071 
  23   2.0000     -14.464424      -393.5970 
  24   2.0000     -11.128067      -302.8101 
  25   2.0000     -11.126776      -302.7750 
  26   2.0000     -11.122268      -302.6523 
  27   2.0000     -11.119437      -302.5753 
  28   2.0000     -11.119021      -302.5639 
  29   2.0000     -10.340541      -281.3804 
  30   2.0000     -10.340464      -281.3783 
  31   2.0000     -10.340186      -281.3708 
  32   2.0000     -10.340096      -281.3683 
  33   2.0000     -10.315524      -280.6997 
  34   2.0000     -10.315382      -280.6958 
  35   2.0000     -10.314632      -280.6754 
  36   2.0000     -10.314098      -280.6609 
  37   2.0000     -10.289652      -279.9957 
  38   2.0000     -10.289622      -279.9948 
  39   2.0000     -10.288675      -279.9691 
  40   2.0000     -10.288301      -279.9589 
  41   2.0000     -10.286281      -279.9039 
  42   2.0000     -10.285956      -279.8951 
  43   2.0000     -10.283564      -279.8300 
  44   2.0000     -10.283503      -279.8283 
[...]
   0  45   27509.9    363.5     -0.47704 ( -0.00216,  0.01231) ( -0.00250,  0.01423) ( -0.00046,  0.00260)
   0  46   27528.3    363.3      0.30888 (  0.00218, -0.00199) ( -0.01075,  0.00978) (  0.00394, -0.00358)
   0  47   27531.2    363.2     -1.39761 ( -0.00163, -0.00056) ( -0.02005, -0.00696) ( -0.01723, -0.00598)
   0  48   27616.7    362.1    -92.48146 ( -0.00501, -0.00201) ( -0.01315, -0.00528) ( -0.12885, -0.05173)
   0  49   28248.8    354.0      4.08179 ( -0.05352,  0.01213) (  0.13182, -0.02987) ( -0.00187,  0.00042)
   0  50   28449.9    351.5      2.43294 (  0.00400, -0.00311) ( -0.00982,  0.00765) (  0.02107, -0.01641)
   0  51   28526.8    350.5      0.17454 ( -0.00684, -0.02324) (  0.00215,  0.00731) (  0.00040,  0.00136)
   0  52   28533.2    350.5     -0.30095 ( -0.00838, -0.00524) (  0.00144,  0.00090) ( -0.00262, -0.00164)
   0  53   28627.2    349.3     -2.12687 (  0.00117,  0.00336) (  0.00538,  0.01539) ( -0.00362, -0.01035)
   0  54   28647.0    349.1     -0.06607 ( -0.00862, -0.00405) (  0.00046,  0.00022) (  0.00288,  0.00135)
   0  55   28669.4    348.8     -1.57951 (  0.00743,  0.00218) (  0.01264,  0.00371) ( -0.01007, -0.00295)
   0  56   28739.6    348.0    -11.22856 ( -0.00130, -0.00558) ( -0.00264, -0.01135) ( -0.01049, -0.04516)
   0  57   29103.6    343.6      0.97631 ( -0.00026, -0.00067) (  0.00239,  0.00615) (  0.01537,  0.03958)
   0  58   29319.4    341.1     -3.30170 (  0.01852, -0.04102) ( -0.00496,  0.01099) ( -0.00032,  0.00070)
   0  59   29381.2    340.4      0.08266 (  0.00802, -0.00036) ( -0.00021,  0.00001) ( -0.00424,  0.00019)
   0  60   29395.4    340.2     -0.50977 ( -0.00699, -0.00373) (  0.00289,  0.00154) ( -0.01003, -0.00535)
   0  61   29475.1    339.3      5.01119 ( -0.01323,  0.00916) (  0.03061, -0.02119) ( -0.00110,  0.00076)
   0  62   29614.2    337.7     -0.08572 ( -0.00053,  0.01097) (  0.00048, -0.00983) (  0.00048, -0.00988)
   0  63   29626.0    337.5     -0.70837 ( -0.00188,  0.01212) (  0.00072, -0.00465) ( -0.00018,  0.00113)
   0  64   29631.6    337.5     -0.33895 (  0.00652,  0.00070) ( -0.00495, -0.00053) ( -0.00745, -0.00080)
   0  65   30100.3    332.2     -0.98111 ( -0.02961, -0.01655) (  0.02054,  0.01148) ( -0.00226, -0.00126)
   0  66   30166.6    331.5     -0.70755 (  0.00439,  0.01134) ( -0.00370, -0.00956) ( -0.00778, -0.02012)
   0  67   30202.3    331.1     -0.57382 ( -0.01228,  0.00862) (  0.01054, -0.00739) (  0.01311, -0.00920)
   0  68   30210.2    331.0     -0.06039 ( -0.00036,  0.00148) (  0.00168, -0.00690) ( -0.00023,  0.00094)
   0  69   30285.5    330.2     -1.48524 (  0.01326, -0.02315) ( -0.00720,  0.01256) ( -0.00019,  0.00033)
   0  70   30331.4    329.7     -3.16314 (  0.07757, -0.06178) ( -0.05709,  0.04547) ( -0.00409,  0.00326)
   0  71   30551.6    327.3     -2.77523 ( -0.00088,  0.00567) ( -0.00375,  0.02420) ( -0.00310,  0.02001)
   0  72   30673.1    326.0     -2.87008 (  0.00646, -0.00436) ( -0.00804,  0.00543) (  0.05291, -0.03570)
   0  73   30986.6    322.7      0.09710 ( -0.00254, -0.00085) (  0.00377,  0.00126) (  0.01118,  0.00372)
   0  74   30997.7    322.6      0.29887 (  0.00956,  0.00462) ( -0.00635, -0.00307) ( -0.00369, -0.00178)
   0  75   31054.6    322.0     -4.25020 (  0.05104, -0.05870) ( -0.03473,  0.03994) ( -0.01153,  0.01326)
   0  76   31092.5    321.6     -1.31019 ( -0.00037, -0.00013) ( -0.01358, -0.00488) ( -0.00510, -0.00183)
   0  77   31115.5    321.4     -0.69487 ( -0.03373,  0.04273) (  0.01643, -0.02082) ( -0.00747,  0.00947)
   0  78   31122.3    321.3     -1.17343 ( -0.03852,  0.00223) (  0.01598, -0.00093) ( -0.01602,  0.00093)
   0  79   31380.5    318.7     23.14298 (  0.10965,  0.07579) ( -0.16239, -0.11224) ( -0.03691, -0.02551)
   0  80   31386.2    318.6      9.07834 ( -0.03010, -0.00414) (  0.02996,  0.00412) (  0.05868,  0.00808)
   0  81   31432.4    318.1      1.09955 ( -0.02338,  0.01316) (  0.04598, -0.02587) (  0.01989, -0.01119)
   0  82   31452.2    317.9     16.08390 (  0.06156, -0.01234) ( -0.04487,  0.00900) (  0.07939, -0.01592)
   0  83   31490.7    317.6      1.07407 (  0.07367,  0.04358) ( -0.15075, -0.08919) (  0.06605,  0.03908)
   0  84   31513.9    317.3     -7.02893 ( -0.00212, -0.03161) (  0.00819,  0.12183) (  0.00272,  0.04053)
   0  85   31640.0    316.1     -0.11542 (  0.00367, -0.00375) ( -0.04437,  0.04533) ( -0.00071,  0.00072)
   0  86   31659.2    315.9      1.75051 (  0.02635, -0.04454) ( -0.04331,  0.07321) ( -0.00032,  0.00054)
   0  87   31685.3    315.6     -0.59994 (  0.00024,  0.00020) (  0.01208,  0.01002) (  0.00658,  0.00545)
   0  88   31751.7    314.9      1.60010 ( -0.02031, -0.00422) (  0.02797,  0.00581) ( -0.00689, -0.00143)
   0  89   31757.3    314.9     -0.04076 (  0.00565, -0.00772) ( -0.00015,  0.00020) (  0.00735, -0.01005)
   0  90   31770.4    314.8     -3.97482 ( -0.01517, -0.04542) (  0.01417,  0.04243) ( -0.00729, -0.02184)
   0  91   31781.0    314.7      3.10691 (  0.05334,  0.02461) ( -0.07367, -0.03399) ( -0.01311, -0.00605)
   0  92   31832.6    314.1     -2.69344 ( -0.00322, -0.00932) (  0.01078,  0.03118) (  0.01543,  0.04462)
   0  93   31852.9    313.9     -0.33926 ( -0.00118, -0.00125) (  0.00803,  0.00851) ( -0.00758, -0.00803)
   0  94   31868.7    313.8     -0.80169 ( -0.00081, -0.00109) (  0.00597,  0.00805) (  0.01457,  0.01965)
   0  95   31874.5    313.7     -0.38716 ( -0.00940,  0.00483) (  0.00634, -0.00326) ( -0.00666,  0.00342)
   0  96   31912.8    313.4     -0.08759 (  0.00061, -0.00148) ( -0.00137,  0.00334) (  0.00050, -0.00122)
   0  97   31927.5    313.2      0.19336 (  0.00062,  0.00771) ( -0.00062, -0.00776) (  0.00007,  0.00085)
   0  98   31939.9    313.1     -0.93619 (  0.00839, -0.00308) (  0.00139, -0.00051) (  0.01258, -0.00462)
   0  99   32071.3    311.8      1.11865 (  0.00025, -0.00014) (  0.02196, -0.01215) (  0.00388, -0.00215)
   0 100   32095.0    311.6     -2.21882 ( -0.01132,  0.01219) (  0.00725, -0.00781) ( -0.01697,  0.01827)
   0 101   32118.9    311.3     -0.01110 ( -0.00040,  0.00348) (  0.00074, -0.00643) ( -0.00084,  0.00735)
   0 102   32132.1    311.2     24.98827 (  0.00264,  0.02200) (  0.00633,  0.05283) ( -0.00037, -0.00312)
   0 103   32371.2    308.9     42.76112 ( -0.00625,  0.00335) ( -0.01028,  0.00552) ( -0.10853,  0.05822)
   0 104   32442.8    308.2     -7.75991 (  0.04251,  0.03530) ( -0.03009, -0.02499) ( -0.00885, -0.00735)
   0 105   32470.1    308.0      0.20321 (  0.00060, -0.00062) (  0.00287, -0.00299) (  0.00660, -0.00685)
   0 106   32473.7    307.9      1.69373 (  0.00410, -0.00723) ( -0.00222,  0.00391) (  0.01328, -0.02341)
   0 107   32478.9    307.9     -1.10898 (  0.00046,  0.02951) ( -0.00028, -0.01787) ( -0.00016, -0.01040)
   0 108   32536.5    307.3     -0.48259 ( -0.01499,  0.01152) (  0.00062, -0.00047) (  0.01559, -0.01198)
   0 109   32545.6    307.3      1.57229 ( -0.00710,  0.00862) ( -0.00489,  0.00593) ( -0.01670,  0.02026)
   0 110   32551.9    307.2     -1.17888 ( -0.02633, -0.00024) (  0.01204,  0.00011) (  0.00269,  0.00002)
   0 111   32566.0    307.1     -1.24465 ( -0.01150,  0.01628) ( -0.00389,  0.00550) ( -0.00239,  0.00339)
   0 112   32572.5    307.0      2.24763 ( -0.00022,  0.00022) ( -0.00029,  0.00029) ( -0.02279,  0.02244)
   0 113   32626.4    306.5    -30.32999 (  0.06926,  0.09823) ( -0.02414, -0.03424) ( -0.00400, -0.00567)
   0 114   32710.1    305.7      0.32690 ( -0.00110,  0.00115) (  0.00192, -0.00201) (  0.00222, -0.00232)
   0 115   32722.3    305.6     -3.61964 ( -0.02252,  0.01846) (  0.01985, -0.01627) (  0.00142, -0.00117)
   0 116   32726.2    305.6     -0.26403 ( -0.00804, -0.00179) (  0.00388,  0.00086) (  0.00069,  0.00015)
   0 117   32937.9    303.6      2.52742 ( -0.00968,  0.00789) (  0.00179, -0.00146) ( -0.02090,  0.01704)
   0 118   32985.4    303.2      0.49569 ( -0.00978, -0.00761) (  0.00108,  0.00084) ( -0.00267, -0.00208)
   0 119   32996.2    303.1     -0.03413 (  0.00308, -0.00037) ( -0.00616,  0.00074) ( -0.01037,  0.00124)
   0 120   33043.6    302.6      2.71472 ( -0.01892,  0.00685) (  0.01176, -0.00426) ( -0.04123,  0.01492)
   0 121   33084.7    302.3      5.59770 ( -0.02535,  0.01472) (  0.02592, -0.01505) (  0.02538, -0.01474)
   0 122   33128.4    301.9      1.46801 (  0.01605, -0.00076) (  0.00704, -0.00033) ( -0.01114,  0.00053)
   0 123   33163.4    301.5      2.53017 ( -0.02574, -0.05899) (  0.00975,  0.02234) ( -0.00000, -0.00000)
   0 124   33182.0    301.4      0.06047 ( -0.00596,  0.01076) ( -0.00087,  0.00158) (  0.00439, -0.00793)
   0 125   33305.3    300.3     -1.43878 ( -0.00230,  0.02570) (  0.00097, -0.01081) (  0.00050, -0.00562)
   0 126   33321.7    300.1      0.32433 (  0.00800, -0.01225) ( -0.00137,  0.00209) (  0.00038, -0.00058)
   0 127   33328.5    300.0     -1.13182 (  0.00841,  0.02130) ( -0.00234, -0.00593) ( -0.00118, -0.00299)
   0 128   33349.3    299.9      6.23448 ( -0.05005,  0.01893) (  0.01074, -0.00406) (  0.00554, -0.00210)
   0 129   33363.2    299.7     -0.34719 (  0.01564,  0.00700) ( -0.01345, -0.00602) (  0.00112,  0.00050)
   0 130   33379.0    299.6      1.62144 ( -0.01918,  0.01217) (  0.00485, -0.00308) ( -0.00438,  0.00278)
   0 131   33419.8    299.2     -1.62867 ( -0.01036, -0.00477) (  0.01806,  0.00832) (  0.00199,  0.00092)
   0 132   33455.5    298.9      1.04352 ( -0.01305,  0.00558) ( -0.00444,  0.00190) ( -0.00723,  0.00309)
   0 133   33471.0    298.8     -4.23054 (  0.01567,  0.02799) ( -0.01991, -0.03557) ( -0.00277, -0.00495)
   0 134   33520.9    298.3     -0.69398 ( -0.02619,  0.01637) (  0.02330, -0.01456) ( -0.00818,  0.00511)
   0 135   33528.4    298.3      0.13223 (  0.00617, -0.00350) ( -0.00189,  0.00107) (  0.00352, -0.00200)
   0 136   33557.4    298.0      0.28408 (  0.00880, -0.00211) ( -0.01152,  0.00276) (  0.00475, -0.00114)
   0 137   33565.2    297.9      0.05170 (  0.00979,  0.00956) ( -0.02581, -0.02520) ( -0.00010, -0.00010)
   0 138   33587.9    297.7      0.62300 ( -0.00095,  0.00107) (  0.00691, -0.00772) (  0.00176, -0.00197)
   0 139   33614.8    297.5      1.45551 ( -0.00231,  0.00046) ( -0.03143,  0.00631) (  0.00229, -0.00046)
   0 140   33628.8    297.4     -0.00737 (  0.00050, -0.00707) ( -0.00010,  0.00144) (  0.00020, -0.00286)
   0 141   33631.8    297.3      0.14976 (  0.00353, -0.00423) (  0.00019, -0.00022) ( -0.00016,  0.00019)
   0 142   33666.6    297.0      2.32132 ( -0.00077,  0.00028) ( -0.04564,  0.01638) ( -0.00779,  0.00280)
   0 143   33673.2    297.0     -0.19181 (  0.00217, -0.00869) ( -0.00525,  0.02101) (  0.00447, -0.01788)
   0 144   33816.6    295.7      1.05062 (  0.01133, -0.00599) ( -0.00667,  0.00353) (  0.00149, -0.00079)
   0 145   33826.6    295.6     -0.15226 (  0.00200, -0.00225) (  0.00504, -0.00567) (  0.00497, -0.00558)
   0 146   33839.3    295.5      0.16858 (  0.00660, -0.00097) (  0.00380, -0.00056) (  0.00442, -0.00065)
   0 147   33940.7    294.6     -0.54096 ( -0.00166, -0.00137) (  0.00700,  0.00581) (  0.01044,  0.00866)
   0 148   34023.0    293.9      0.85588 (  0.01532,  0.03452) ( -0.01516, -0.03416) ( -0.00002, -0.00005)
   0 149   34039.8    293.8     -0.07688 ( -0.00034,  0.00306) (  0.00023, -0.00212) (  0.00022, -0.00201)
   0 150   34137.6    292.9      4.20665 ( -0.01369, -0.00976) (  0.03380,  0.02409) (  0.00429,  0.00306)
   0 151   34191.6    292.5     -0.05650 ( -0.00155, -0.00320) ( -0.00030, -0.00062) ( -0.00174, -0.00358)
   0 152   34287.7    291.6      0.37807 (  0.00003,  0.03948) (  0.00000,  0.00168) (  0.00001,  0.00812)
   0 153   34301.5    291.5     -0.88237 (  0.00367,  0.00051) ( -0.00898, -0.00126) ( -0.00372, -0.00052)
   0 154   34342.0    291.2      0.99194 ( -0.00119,  0.01304) (  0.00041, -0.00450) ( -0.00239,  0.02622)
   0 155   34377.8    290.9     12.20523 ( -0.05567,  0.02119) (  0.00995, -0.00379) (  0.00147, -0.00056)
   0 156   34438.9    290.4     -0.78654 ( -0.01401,  0.00472) ( -0.01044,  0.00352) ( -0.04338,  0.01462)
   0 157   34472.7    290.1     -0.49236 (  0.01773,  0.01364) ( -0.00361, -0.00277) (  0.00159,  0.00122)
   0 158   34519.3    289.7     -1.50768 (  0.01047,  0.00211) (  0.04155,  0.00836) (  0.00544,  0.00109)
   0 159   34549.0    289.4     -0.92803 ( -0.01089,  0.00280) ( -0.01189,  0.00305) (  0.01838, -0.00472)
   0 160   34572.2    289.2     -0.27117 ( -0.00152,  0.00218) (  0.00853, -0.01224) (  0.00446, -0.00640)
   0 161   34614.4    288.9      0.85481 (  0.01855, -0.00153) ( -0.00299,  0.00025) (  0.01605, -0.00133)
   0 162   34678.3    288.4     -1.40525 (  0.00179, -0.00136) ( -0.01506,  0.01143) (  0.02316, -0.01758)
   0 163   34729.0    287.9      2.30491 ( -0.00964,  0.00229) (  0.00279, -0.00066) ( -0.02491,  0.00591)
   0 164   34748.6    287.8      3.06833 (  0.01203,  0.01907) ( -0.02045, -0.03241) (  0.02177,  0.03449)
   0 165   34833.7    287.1      0.63570 ( -0.01915,  0.00801) (  0.05674, -0.02372) (  0.02033, -0.00850)
   0 166   34884.8    286.7      5.98340 (  0.04148, -0.02197) ( -0.04995,  0.02646) (  0.01978, -0.01048)
   0 167   34923.4    286.3      1.15288 ( -0.00246,  0.00991) (  0.01004, -0.04050) (  0.00915, -0.03692)
   0 168   34989.2    285.8      1.94311 (  0.06860, -0.01377) (  0.03883, -0.00779) (  0.00305, -0.00061)
   0 169   35021.7    285.5      6.64432 ( -0.01742, -0.05613) ( -0.00456, -0.01469) (  0.01172,  0.03776)
   0 170   35091.5    285.0     -0.13550 (  0.00071, -0.00053) (  0.00453, -0.00338) ( -0.00314,  0.00234)
   0 171   35097.1    284.9     -0.14895 ( -0.00176, -0.00159) ( -0.00147, -0.00133) ( -0.00903, -0.00819)
   0 172   35101.4    284.9      0.51694 ( -0.00971, -0.01967) (  0.00456,  0.00924) (  0.00306,  0.00621)
   0 173   35149.5    284.5     -0.45473 (  0.00370, -0.00166) ( -0.00276,  0.00123) ( -0.01175,  0.00526)
   0 174   35157.1    284.4     -0.12253 ( -0.00226,  0.00199) (  0.00199, -0.00175) ( -0.00865,  0.00760)
   0 175   35159.5    284.4      0.32791 ( -0.00998,  0.01039) (  0.00089, -0.00092) (  0.00441, -0.00458)
   0 176   35214.1    284.0     -0.78802 ( -0.00131,  0.00055) ( -0.00614,  0.00257) ( -0.02114,  0.00886)
   0 177   35217.2    284.0     -0.03458 (  0.00088, -0.00176) (  0.00139, -0.00279) (  0.00101, -0.00202)
   0 178   35237.9    283.8     -0.44789 ( -0.00469,  0.00028) (  0.01073, -0.00064) ( -0.01665,  0.00099)
   0 179   35259.4    283.6      0.09324 (  0.00076,  0.00087) (  0.00968,  0.01115) (  0.00325,  0.00375)
   0 180   35288.4    283.4     -0.03140 ( -0.00245,  0.00153) ( -0.00306,  0.00191) (  0.00451, -0.00281)
   0 181   35303.0    283.3     -0.01395 ( -0.01385,  0.00195) (  0.02784, -0.00391) (  0.00512, -0.00072)
   0 182   35484.1    281.8     -0.28792 (  0.00435,  0.00420) ( -0.01197, -0.01157) ( -0.10663, -0.10303)
   0 183   35624.1    280.7      9.25582 ( -0.01217,  0.01506) ( -0.01047,  0.01296) ( -0.02477,  0.03065)
   0 184   35980.2    277.9     19.66137 (  0.07371, -0.12162) ( -0.06821,  0.11255) ( -0.00113,  0.00187)
   0 185   36107.8    276.9    -23.17038 (  0.01108, -0.01610) ( -0.04902,  0.07124) ( -0.00274,  0.00398)
   0 186   36341.3    275.2      9.31033 ( -0.13645,  0.20818) (  0.00668, -0.01019) (  0.01468, -0.02239)
   0 187   36369.1    275.0     -0.98117 ( -0.01077,  0.00944) (  0.00018, -0.00016) ( -0.02922,  0.02562)
   0 188   36516.2    273.9      4.12252 (  0.03452, -0.04355) (  0.02495, -0.03147) ( -0.00443,  0.00559)
   0 189   36660.4    272.8     -6.26381 ( -0.00481,  0.00561) (  0.01031, -0.01202) ( -0.03741,  0.04362)
   0 190   36835.9    271.5    -10.04580 ( -0.01094, -0.01515) (  0.15137,  0.20969) ( -0.00696, -0.00964)
   0 191   37352.4    267.7    -35.33103 ( -0.11333, -0.07682) (  0.05874,  0.03982) (  0.01152,  0.00781)
   0 192   37377.6    267.5    -48.82387 ( -0.10473,  0.09522) (  0.02316, -0.02106) (  0.02777, -0.02525)
   0 193   37496.0    266.7     10.11033 (  0.02128,  0.05452) ( -0.01315, -0.03371) ( -0.02293, -0.05876)
   0 194   37580.1    266.1     -7.67286 ( -0.17378, -0.02606) (  0.12709,  0.01906) (  0.02974,  0.00446)
   0 195   37612.9    265.9     -5.60156 ( -0.02014, -0.05092) (  0.00339,  0.00858) ( -0.04410, -0.11147)
   0 196   37841.0    264.3    -18.14525 (  0.03259,  0.06270) (  0.02451,  0.04717) (  0.04406,  0.08478)
   0 197   37939.5    263.6    -26.13195 ( -0.05207, -0.05923) ( -0.03323, -0.03780) (  0.09541,  0.10854)
   0 198   37941.5    263.6    -13.60120 ( -0.10384,  0.17324) (  0.10672, -0.17806) (  0.09405, -0.15691)
   0 199   38031.4    262.9    -91.14239 (  0.05585,  0.12662) ( -0.04195, -0.09511) (  0.05737,  0.13005)
   0 200   38204.4    261.8    185.44477 (  0.42333,  0.12134) ( -0.52337, -0.15002) (  0.00348,  0.00100)

*The complex numbers are printed as (real, imaginary)

The electronic components of the SOC ground state dipole moment in a.u. are:
           X                     Y                     Z
( -4.85664, -0.00000) ( -3.44288,  0.00000) (-21.78936, -0.00000)

Total run time:     8114.954 sec

           *** ORCA-CIS/TD-DFT FINISHED WITHOUT ERROR ***

Maximum memory used throughout the entire CIS-calculation: 11136.1 MB

---------------------------
SOC CIS/TD-DFT TOTAL ENERGY
---------------------------

    E(SCF)        = -21744.782722329 Eh
    E(SOC CIS)    =      0.073378907 Eh (SOC Root  1)
    ----------------------------- ---------
    E(tot)        = -21744.709343421 Eh


-------------------------   --------------------
FINAL SINGLE POINT ENERGY    -21744.709343421415
-------------------------   --------------------


                            ***************************************
                            *     ORCA property calculations      *
                            ***************************************

                                    ---------------------
                                    Active property flags
                                    ---------------------
   (+) Dipole Moment


------------------------------------------------------------------------------
                       ORCA ELECTRIC PROPERTIES CALCULATION
------------------------------------------------------------------------------

Dipole Moment Calculation                       ... on
Quadrupole Moment Calculation                   ... off
Polarizability Calculation                      ... off
GBWName                                         ... Ir_isoCN_5_SOC-M06_def2SVP.gbw
Electron density                                ... Ir_isoCN_5_SOC-M06_def2SVP.scfp
The origin for moment calculation is the CENTER OF MASS  = (-0.009720, -0.006873 -0.045126)

-------------
DIPOLE MOMENT
-------------
                                X             Y             Z
Electronic contribution:     -4.85475      -3.43821     -21.77486
Nuclear contribution   :      5.23892       3.70441      24.32298
                        -----------------------------------------
Total Dipole Moment    :      0.38418       0.26619       2.54812
                        -----------------------------------------
Magnitude (a.u.)       :      2.59064
Magnitude (Debye)      :      6.58487



--------------------
Rotational spectrum 
--------------------
 
Rotational constants in cm-1:     0.001207     0.001184     0.001069 
Rotational constants in MHz :    36.171508    35.495780    32.050105 

 Dipole components along the rotational axes: 
x,y,z [a.u.] :     0.405584     0.186942     2.551851 
x,y,z [Debye]:     1.030912     0.475169     6.486290 

 

Timings for individual modules:

Sum of individual times         ...     9410.994 sec (= 156.850 min)
GTO integral calculation        ...        7.657 sec (=   0.128 min)   0.1 %
Relativistic integrals          ...       38.712 sec (=   0.645 min)   0.4 %
SCF iterations                  ...     1244.553 sec (=  20.743 min)  13.2 %
CIS module                      ...     8120.071 sec (= 135.335 min)  86.3 %
                             ****ORCA TERMINATED NORMALLY****
TOTAL RUN TIME: 0 days 2 hours 36 minutes 55 seconds 537 msec
