
                                 *****************
                                 * O   R   C   A *
                                 *****************

                                            #,                                       
                                            ###                                      
                                            ####                                     
                                            #####                                    
                                            ######                                   
                                           ########,                                 
                                     ,,################,,,,,                         
                               ,,#################################,,                 
                          ,,##########################################,,             
                       ,#########################################, ''#####,          
                    ,#############################################,,   '####,        
                  ,##################################################,,,,####,       
                ,###########''''           ''''###############################       
              ,#####''   ,,,,##########,,,,          '''####'''          '####       
            ,##' ,,,,###########################,,,                        '##       
           ' ,,###''''                  '''############,,,                           
         ,,##''                                '''############,,,,        ,,,,,,###''
      ,#''                                            '''#######################'''  
     '                                                          ''''####''''         
             ,#######,   #######,   ,#######,      ##                                
            ,#'     '#,  ##    ##  ,#'     '#,    #''#        ######   ,####,        
            ##       ##  ##   ,#'  ##            #'  '#       #        #'  '#        
            ##       ##  #######   ##           ,######,      #####,   #    #        
            '#,     ,#'  ##    ##  '#,     ,#' ,#      #,         ##   #,  ,#        
             '#######'   ##     ##  '#######'  #'      '#     #####' # '####'        



                  #######################################################
                  #                        -***-                        #
                  #          Department of theory and spectroscopy      #
                  #    Directorship and core code : Frank Neese         #
                  #        Max Planck Institute fuer Kohlenforschung    #
                  #                Kaiser Wilhelm Platz 1               #
                  #                 D-45470 Muelheim/Ruhr               #
                  #                      Germany                        #
                  #                                                     #
                  #                  All rights reserved                #
                  #                        -***-                        #
                  #######################################################


                         Program Version 5.0.4 -  RELEASE  -


 With contributions from (in alphabetic order):
   Daniel Aravena         : Magnetic Suceptibility
   Michael Atanasov       : Ab Initio Ligand Field Theory (pilot matlab implementation)
   Alexander A. Auer      : GIAO ZORA, VPT2 properties, NMR spectrum
   Ute Becker             : Parallelization
   Giovanni Bistoni       : ED, misc. LED, open-shell LED, HFLD
   Martin Brehm           : Molecular dynamics
   Dmytro Bykov           : SCF Hessian
   Vijay G. Chilkuri      : MRCI spin determinant printing, contributions to CSF-ICE
   Dipayan Datta          : RHF DLPNO-CCSD density
   Achintya Kumar Dutta   : EOM-CC, STEOM-CC
   Dmitry Ganyushin       : Spin-Orbit,Spin-Spin,Magnetic field MRCI
   Miquel Garcia          : C-PCM and meta-GGA Hessian, CC/C-PCM, Gaussian charge scheme
   Yang Guo               : DLPNO-NEVPT2, F12-NEVPT2, CIM, IAO-localization
   Andreas Hansen         : Spin unrestricted coupled pair/coupled cluster methods
   Benjamin Helmich-Paris : MC-RPA, TRAH-SCF, COSX integrals
   Lee Huntington         : MR-EOM, pCC
   Robert Izsak           : Overlap fitted RIJCOSX, COSX-SCS-MP3, EOM
   Marcus Kettner         : VPT2
   Christian Kollmar      : KDIIS, OOCD, Brueckner-CCSD(T), CCSD density, CASPT2, CASPT2-K
   Simone Kossmann        : Meta GGA functionals, TD-DFT gradient, OOMP2, MP2 Hessian
   Martin Krupicka        : Initial AUTO-CI
   Lucas Lang             : DCDCAS
   Marvin Lechner         : AUTO-CI (C++ implementation), FIC-MRCC
   Dagmar Lenk            : GEPOL surface, SMD
   Dimitrios Liakos       : Extrapolation schemes; Compound Job, initial MDCI parallelization
   Dimitrios Manganas     : Further ROCIS development; embedding schemes
   Dimitrios Pantazis     : SARC Basis sets
   Anastasios Papadopoulos: AUTO-CI, single reference methods and gradients
   Taras Petrenko         : DFT Hessian,TD-DFT gradient, ASA, ECA, R-Raman, ABS, FL, XAS/XES, NRVS
   Peter Pinski           : DLPNO-MP2, DLPNO-MP2 Gradient
   Christoph Reimann      : Effective Core Potentials
   Marius Retegan         : Local ZFS, SOC
   Christoph Riplinger    : Optimizer, TS searches, QM/MM, DLPNO-CCSD(T), (RO)-DLPNO pert. Triples
   Tobias Risthaus        : Range-separated hybrids, TD-DFT gradient, RPA, STAB
   Michael Roemelt        : Original ROCIS implementation
   Masaaki Saitow         : Open-shell DLPNO-CCSD energy and density
   Barbara Sandhoefer     : DKH picture change effects
   Avijit Sen             : IP-ROCIS
   Kantharuban Sivalingam : CASSCF convergence, NEVPT2, FIC-MRCI
   Bernardo de Souza      : ESD, SOC TD-DFT
   Georgi Stoychev        : AutoAux, RI-MP2 NMR, DLPNO-MP2 response
   Willem Van den Heuvel  : Paramagnetic NMR
   Boris Wezisla          : Elementary symmetry handling
   Frank Wennmohs         : Technical directorship


 We gratefully acknowledge several colleagues who have allowed us to
 interface, adapt or use parts of their codes:
   Stefan Grimme, W. Hujo, H. Kruse, P. Pracht,  : VdW corrections, initial TS optimization,
                  C. Bannwarth, S. Ehlert          DFT functionals, gCP, sTDA/sTD-DF
   Ed Valeev, F. Pavosevic, A. Kumar             : LibInt (2-el integral package), F12 methods
   Garnet Chan, S. Sharma, J. Yang, R. Olivares  : DMRG
   Ulf Ekstrom                                   : XCFun DFT Library
   Mihaly Kallay                                 : mrcc  (arbitrary order and MRCC methods)
   Jiri Pittner, Ondrej Demel                    : Mk-CCSD
   Frank Weinhold                                : gennbo (NPA and NBO analysis)
   Christopher J. Cramer and Donald G. Truhlar   : smd solvation model
   Lars Goerigk                                  : TD-DFT with DH, B97 family of functionals
   V. Asgeirsson, H. Jonsson                     : NEB implementation
   FAccTs GmbH                                   : IRC, NEB, NEB-TS, DLPNO-Multilevel, CI-OPT
                                                   MM, QMMM, 2- and 3-layer-ONIOM, Crystal-QMMM,
                                                   LR-CPCM, SF, NACMEs, symmetry and pop. for TD-DFT,
                                                   nearIR, NL-DFT gradient (VV10), updates on ESD,
                                                   ML-optimized integration grids
   S Lehtola, MJT Oliveira, MAL Marques          : LibXC Library
   Liviu Ungur et al                             : ANISO software


 Your calculation uses the libint2 library for the computation of 2-el integrals
 For citations please refer to: http://libint.valeyev.net

 Your ORCA version has been built with support for libXC version: 5.1.0
 For citations please refer to: https://tddft.org/programs/libxc/

 This ORCA versions uses:
   CBLAS   interface :  Fast vector & matrix operations
   LAPACKE interface :  Fast linear algebra routines
   SCALAPACK package :  Parallel linear algebra routines
   Shared memory     :  Shared parallel matrices
   BLAS/LAPACK       :  OpenBLAS 0.3.15  USE64BITINT DYNAMIC_ARCH NO_AFFINITY Zen SINGLE_THREADED
        Core in use  :  Zen
   Copyright (c) 2011-2014, The OpenBLAS Project


Your calculation utilizes the SMD solvation module
Please cite in your paper:
A.V. Marenich, C.J. Cramer, D.G. Truhlar J. Phys. Chem. B, 113, (2009), 6378 

XCFun DFT library Copyright 2009-2010 Ulf Ekstrom and contributors.
See http://admol.org/xcfun for more information.
This is free software; see the source code for copying conditions.
There is ABSOLUTELY NO WARRANTY; not even for MERCHANTABILITY or FITNESS FOR A PARTICULAR PURPOSE.
For details see the documentation.
Scientific users of this library should cite U. Ekstrom, L. Visscher, R. Bast, A. J. Thorvaldsen and K. Ruud;
J.Chem.Theor.Comp. 2010, DOI: 10.1021/ct100117s
XCFun Version 0.99 

================================================================================

----- Orbital basis set information -----
Your calculation utilizes the basis: ZORA-def2-SVP 
   Exponents from def2-SVP [F. Weigend and R. Ahlrichs, Phys. Chem. Chem. Phys. 7, 3297 (2005)],
   recontracted for ZORA by D. A. Pantazis.

The basis set includes element-specific modifications.

Your calculation utilizes the basis: SARC-ZORA-TZVP 
   Rb-Xe:  J. D. Rolfes, F. Neese and D. A. Pantazis, J. Comput. Chem. 41, 1842 (2020).
   La-Lu:  D. A. Pantazis and F. Neese, J. Chem. Theory Comput. 5, 2229 (2009).
   Hf-Hg:  D. A. Pantazis, X. Y. Chen, C. R. Landis and F. Neese, J. Chem. Theory Comput. 4, 908 (2008).
   Tl-Rn:  D. A. Pantazis and F. Neese, Theor. Chem. Acc. 131, 1292 (2012).
   Ac-Lr:  D. A. Pantazis and F. Neese, J. Chem. Theory Comput. 7, 677 (2011).

----- AuxJ basis set information -----
Your calculation utilizes the auxiliary basis: SARC/J 
   decontracted def2/J up to Kr:
   F. Weigend, Phys. Chem. Chem. Phys. 8, 1057 (2006)
   and SARC auxiliary basis sets beyond Kr:
   D. A. Pantazis and F. Neese, J. Chem. Theory Comput. 5, 2229 (2009).
   D. A. Pantazis, X. Y. Chen, C. R. Landis and F. Neese, J. Chem. Theory Comput. 4, 908 (2008).
   D. A. Pantazis and F. Neese, Theor. Chem. Acc. 131, 1292 (2012).
   D. A. Pantazis and F. Neese, J. Chem. Theory Comput. 7, 677 (2011).

================================================================================
                                        WARNINGS
                       Please study these warnings very carefully!
================================================================================

INFO   : Checking CIS options ...

INFO   : Since TDDFT/CIS Mode == RPA_AOINTS, the TAMMDANCOFF/TDA keyword is ignored. 


WARNING: (CIS/TDDFT): Spin-orbit needs TRIPLETS set to TRUE
  ===> : ajusting flags

WARNING: CIS/ROCIS methods need fully converged wavefunctions
  ===> : Setting SCFConvForced true
         You can overwrite this default with %scf ConvForced false 


INFO   : the flag for use of the SHARK integral package has been found!

================================================================================
                                       INPUT FILE
================================================================================
NAME = Ru-arylbpy_3_SOC-M06L_def2SVP.inp
|  1> %maxcore 12000
|  2> %pal
|  3>  nprocs 8
|  4> end
|  5> ! M06L ZORA ZORA-DEF2-SVP SARC/J CPCM RI-SOMF(1X) DEFGRID3
|  6> 
|  7> %TDDFT 
|  8>     NROOTS    60
|  9>     TDA       FALSE
| 10>     DOSOC     TRUE
| 11> END
| 12> 
| 13> %CPCM
| 14>     SMD		TRUE
| 15>     SMDsolvent	"Acetonitrile"
| 16> END
| 17> 
| 18> %BASIS
| 19>     NEWGTO  RU      "SARC-ZORA-TZVP" END
| 20>     NEWGTO  IR      "SARC-ZORA-TZVP" END
| 21> END
| 22> 
| 23> * xyz 2 1
| 24> C                   0.71208400    2.75230600   -0.62228100
| 25> C                   1.77238200    1.33393400   -2.12688900
| 26> C                   2.37516500    2.39741300   -2.77452700
| 27> C                   1.28845400    3.86123200   -1.23654900
| 28> C                  -0.18399700    2.83643300    0.53642100
| 29> C                  -1.49107000    1.63999700    2.03991500
| 30> C                  -1.88123900    2.79633900    2.69114900
| 31> C                  -0.53858500    4.03255000    1.15538100
| 32> H                   1.93815500    0.30935600   -2.46683100
| 33> H                   3.01041900    2.18992000   -3.63633800
| 34> H                   1.08320800    4.85362800   -0.83575900
| 35> H                  -1.84765900    0.66490800    2.37881600
| 36> H                  -2.54393700    2.71075200    3.55301100
| 37> H                  -0.15016500    4.96983500    0.75744600
| 38> C                   2.10987200   -2.02973100   -0.55738900
| 39> C                   0.40518300   -2.25417900   -2.12106600
| 40> C                   1.05762000   -3.29951500   -2.74965300
| 41> C                   2.81346600   -3.07445100   -1.15108200
| 42> C                   2.58232600   -1.29526800    0.62125800
| 43> C                   2.10226100    0.39066000    2.14752000
| 44> C                   3.27834200    0.16175200    2.83889800
| 45> C                   3.78283300   -1.56670400    1.27332200
| 46> H                  -0.55731600   -1.89611300   -2.49275800
| 47> H                   0.59390200   -3.75012800   -3.62771800
| 48> H                   3.76216400   -3.38852100   -0.71673600
| 49> H                   1.41057600    1.17293100    2.46796500
| 50> H                   3.50615500    0.78817700    3.70191700
| 51> H                   4.41640500   -2.37229500    0.90233500
| 52> C                  -2.43579100   -1.58332600    0.54005400
| 53> C                  -0.79103300   -2.07789200    2.10616200
| 54> C                  -1.63878600   -2.92599500    2.79543500
| 55> C                  -3.33387800   -2.42318000    1.19426000
| 56> C                  -2.76386700   -0.82003900   -0.66931100
| 57> C                  -1.98486800    0.69796000   -2.24661400
| 58> C                  -3.18575500    0.67126400   -2.93227600
| 59> C                  -3.99354300   -0.88858600   -1.31961000
| 60> H                   0.23566200   -1.92231900    2.44433600
| 61> H                  -4.34880400   -2.51469600    0.80819500
| 62> H                  -1.15680900    1.31573500   -2.60084400
| 63> H                  -4.77513300   -1.52543200   -0.90600800
| 64> N                  -1.16807300   -1.40350800    1.00522200
| 65> N                  -0.65674000    1.64046000    0.98480400
| 66> N                   1.74426000   -0.31595200    1.06063900
| 67> N                   0.95225800    1.48953700   -1.07240800
| 68> N                   0.90712500   -1.61819300   -1.04732000
| 69> N                  -1.76007900   -0.02623300   -1.13593800
| 70> Ru                  0.00322400   -0.04365400   -0.03897800
| 71> H                  -1.25297600   -3.44853700    3.67138600
| 72> H                  -3.27978400    1.27384600   -3.83603400
| 73> C                  -1.40261400    4.04619400    2.25939000
| 74> C                   2.14304400    3.71420800   -2.33820300
| 75> C                   2.30371200   -3.74368000   -2.27251500
| 76> C                   4.16698800   -0.84000300    2.40911200
| 77> C                  -2.95971000   -3.11898400    2.35253600
| 78> C                  -4.24274800   -0.13766500   -2.47739100
| 79> C                  -3.89965300   -3.99758800    3.06625400
| 80> C                  -3.72712600   -4.28518800    4.43222100
| 81> C                  -4.99861000   -4.57936800    2.41085400
| 82> C                  -4.61788500   -5.10924800    5.10920600
| 83> H                  -2.89448400   -3.83978800    4.98186000
| 84> C                  -5.88190900   -5.40988300    3.09184900
| 85> C                  -5.71610900   -5.68987800    4.45610000
| 86> H                  -4.46254800   -5.30708100    6.17353900
| 87> H                  -6.71915000   -5.86011900    2.55124200
| 88> C                  -5.53745400   -0.19352200   -3.17479900
| 89> C                  -5.95051300    0.85038800   -4.02239600
| 90> C                  -6.40419600   -1.28982800   -3.02274200
| 91> C                  -7.17384800    0.79989100   -4.67927900
| 92> H                  -5.31467800    1.72839800   -4.15696100
| 93> C                  -7.62400500   -1.33817200   -3.68852900
| 94> C                  -8.03954800   -0.29431100   -4.52794800
| 95> H                  -7.46971200    1.63106300   -5.32559400
| 96> H                  -8.26975400   -2.21148800   -3.56095200
| 97> C                   2.76112900    4.87479600   -2.99822400
| 98> C                   3.95407200    4.74295000   -3.73127400
| 99> C                   2.17889000    6.15223900   -2.92354100
|100> C                   4.53724400    5.84009200   -4.35399500
|101> C                   2.76274300    7.24420600   -3.55592100
|102> H                   1.23762500    6.29330400   -2.38682200
|103> C                   3.95631100    7.11535700   -4.28151800
|104> H                   5.46959900    5.70782300   -4.91016300
|105> H                   2.27742300    8.22220200   -3.49326700
|106> C                   3.03357700   -4.85086000   -2.90938500
|107> C                   2.35840300   -5.82609100   -3.66474500
|108> C                   4.42920400   -4.96901300   -2.78837100
|109> C                   3.04889300   -6.87348900   -4.26280400
|110> C                   5.11526300   -6.01425600   -3.39656800
|111> H                   4.99447900   -4.21620900   -2.23345700
|112> C                   4.44190300   -6.99280700   -4.14267500
|113> H                   2.49541300   -7.62188800   -4.83694000
|114> H                   6.20293600   -6.07091200   -3.29811300
|115> C                   5.43067900   -1.11156100    3.11179700
|116> C                   6.52640000   -1.68797400    2.44637400
|117> C                   5.58205600   -0.80376300    4.47574200
|118> C                   7.71868800   -1.94095600    3.11580700
|119> C                   6.77303600   -1.06791800    5.14136500
|120> H                   4.74524600   -0.37650000    5.03358400
|121> C                   7.86993100   -1.63822000    4.47690400
|122> H                   8.55728000   -2.38209900    2.56982600
|123> H                   6.85545700   -0.83302800    6.20631700
|124> C                  -1.78579500    5.30074400    2.92521700
|125> C                  -2.98320100    5.39810400    3.65546500
|126> C                  -0.96673200    6.44177800    2.85767500
|127> C                  -3.34614800    6.58548200    4.28078600
|128> C                  -1.33090400    7.62338500    3.49266000
|129> H                  -0.01367200    6.39870800    2.32497500
|130> C                  -2.53036200    7.72484600    4.21372600
|131> H                  -4.28804900    6.63396400    4.83437100
|132> H                  -0.66577000    8.48964100    3.43586500
|133> H                  -3.65440900    4.53825000    3.71891700
|134> H                   4.44862700    3.77111500   -3.79913100
|135> H                   6.45749800   -1.92211600    1.38131300
|136> H                   1.27180500   -5.77952600   -3.76906400
|137> H                  -6.11207300   -2.13466600   -2.39477900
|138> H                  -5.15271200   -4.40507400    1.34341000
|139> C                  -9.36318300   -0.33090900   -5.21744400
|140> H                 -10.11690200    0.24464000   -4.65660400
|141> H                  -9.31480800    0.11655100   -6.21947100
|142> H                  -9.74864900   -1.35417300   -5.31192800
|143> C                  -6.68358000   -6.55358000    5.19565000
|144> H                  -6.18354500   -7.17109900    5.95408200
|145> H                  -7.42722300   -5.94357900    5.73306900
|146> H                  -7.24183800   -7.21549400    4.52123700
|147> C                  -2.93570800    9.00620100    4.86382400
|148> H                  -3.50527900    9.64020400    4.16543500
|149> H                  -3.58249700    8.83762700    5.73477000
|150> H                  -2.06663700    9.59604700    5.18391700
|151> C                   4.60021400    8.29462700   -4.93233900
|152> H                   5.35736200    8.74623700   -4.27139600
|153> H                   5.12103000    8.01735400   -5.85857100
|154> H                   3.87256000    9.08300100   -5.16463200
|155> C                   9.15771000   -1.88842600    5.18967400
|156> H                   9.76965300   -0.97327400    5.23351400
|157> H                   8.99495200   -2.20221200    6.22962400
|158> H                   9.76350900   -2.65299300    4.68655100
|159> C                   5.17482500   -8.13450400   -4.76569100
|160> H                   5.17046500   -9.01518800   -4.10352900
|161> H                   4.71148200   -8.45214300   -5.70936300
|162> H                   6.22711000   -7.88943800   -4.95953500
|163> *
|164> 
|165>                          ****END OF INPUT****
================================================================================

                       ****************************
                       * Single Point Calculation *
                       ****************************

---------------------------------
CARTESIAN COORDINATES (ANGSTROEM)
---------------------------------
  C      0.712084    2.752306   -0.622281
  C      1.772382    1.333934   -2.126889
  C      2.375165    2.397413   -2.774527
  C      1.288454    3.861232   -1.236549
  C     -0.183997    2.836433    0.536421
  C     -1.491070    1.639997    2.039915
  C     -1.881239    2.796339    2.691149
  C     -0.538585    4.032550    1.155381
  H      1.938155    0.309356   -2.466831
  H      3.010419    2.189920   -3.636338
  H      1.083208    4.853628   -0.835759
  H     -1.847659    0.664908    2.378816
  H     -2.543937    2.710752    3.553011
  H     -0.150165    4.969835    0.757446
  C      2.109872   -2.029731   -0.557389
  C      0.405183   -2.254179   -2.121066
  C      1.057620   -3.299515   -2.749653
  C      2.813466   -3.074451   -1.151082
  C      2.582326   -1.295268    0.621258
  C      2.102261    0.390660    2.147520
  C      3.278342    0.161752    2.838898
  C      3.782833   -1.566704    1.273322
  H     -0.557316   -1.896113   -2.492758
  H      0.593902   -3.750128   -3.627718
  H      3.762164   -3.388521   -0.716736
  H      1.410576    1.172931    2.467965
  H      3.506155    0.788177    3.701917
  H      4.416405   -2.372295    0.902335
  C     -2.435791   -1.583326    0.540054
  C     -0.791033   -2.077892    2.106162
  C     -1.638786   -2.925995    2.795435
  C     -3.333878   -2.423180    1.194260
  C     -2.763867   -0.820039   -0.669311
  C     -1.984868    0.697960   -2.246614
  C     -3.185755    0.671264   -2.932276
  C     -3.993543   -0.888586   -1.319610
  H      0.235662   -1.922319    2.444336
  H     -4.348804   -2.514696    0.808195
  H     -1.156809    1.315735   -2.600844
  H     -4.775133   -1.525432   -0.906008
  N     -1.168073   -1.403508    1.005222
  N     -0.656740    1.640460    0.984804
  N      1.744260   -0.315952    1.060639
  N      0.952258    1.489537   -1.072408
  N      0.907125   -1.618193   -1.047320
  N     -1.760079   -0.026233   -1.135938
  Ru     0.003224   -0.043654   -0.038978
  H     -1.252976   -3.448537    3.671386
  H     -3.279784    1.273846   -3.836034
  C     -1.402614    4.046194    2.259390
  C      2.143044    3.714208   -2.338203
  C      2.303712   -3.743680   -2.272515
  C      4.166988   -0.840003    2.409112
  C     -2.959710   -3.118984    2.352536
  C     -4.242748   -0.137665   -2.477391
  C     -3.899653   -3.997588    3.066254
  C     -3.727126   -4.285188    4.432221
  C     -4.998610   -4.579368    2.410854
  C     -4.617885   -5.109248    5.109206
  H     -2.894484   -3.839788    4.981860
  C     -5.881909   -5.409883    3.091849
  C     -5.716109   -5.689878    4.456100
  H     -4.462548   -5.307081    6.173539
  H     -6.719150   -5.860119    2.551242
  C     -5.537454   -0.193522   -3.174799
  C     -5.950513    0.850388   -4.022396
  C     -6.404196   -1.289828   -3.022742
  C     -7.173848    0.799891   -4.679279
  H     -5.314678    1.728398   -4.156961
  C     -7.624005   -1.338172   -3.688529
  C     -8.039548   -0.294311   -4.527948
  H     -7.469712    1.631063   -5.325594
  H     -8.269754   -2.211488   -3.560952
  C      2.761129    4.874796   -2.998224
  C      3.954072    4.742950   -3.731274
  C      2.178890    6.152239   -2.923541
  C      4.537244    5.840092   -4.353995
  C      2.762743    7.244206   -3.555921
  H      1.237625    6.293304   -2.386822
  C      3.956311    7.115357   -4.281518
  H      5.469599    5.707823   -4.910163
  H      2.277423    8.222202   -3.493267
  C      3.033577   -4.850860   -2.909385
  C      2.358403   -5.826091   -3.664745
  C      4.429204   -4.969013   -2.788371
  C      3.048893   -6.873489   -4.262804
  C      5.115263   -6.014256   -3.396568
  H      4.994479   -4.216209   -2.233457
  C      4.441903   -6.992807   -4.142675
  H      2.495413   -7.621888   -4.836940
  H      6.202936   -6.070912   -3.298113
  C      5.430679   -1.111561    3.111797
  C      6.526400   -1.687974    2.446374
  C      5.582056   -0.803763    4.475742
  C      7.718688   -1.940956    3.115807
  C      6.773036   -1.067918    5.141365
  H      4.745246   -0.376500    5.033584
  C      7.869931   -1.638220    4.476904
  H      8.557280   -2.382099    2.569826
  H      6.855457   -0.833028    6.206317
  C     -1.785795    5.300744    2.925217
  C     -2.983201    5.398104    3.655465
  C     -0.966732    6.441778    2.857675
  C     -3.346148    6.585482    4.280786
  C     -1.330904    7.623385    3.492660
  H     -0.013672    6.398708    2.324975
  C     -2.530362    7.724846    4.213726
  H     -4.288049    6.633964    4.834371
  H     -0.665770    8.489641    3.435865
  H     -3.654409    4.538250    3.718917
  H      4.448627    3.771115   -3.799131
  H      6.457498   -1.922116    1.381313
  H      1.271805   -5.779526   -3.769064
  H     -6.112073   -2.134666   -2.394779
  H     -5.152712   -4.405074    1.343410
  C     -9.363183   -0.330909   -5.217444
  H    -10.116902    0.244640   -4.656604
  H     -9.314808    0.116551   -6.219471
  H     -9.748649   -1.354173   -5.311928
  C     -6.683580   -6.553580    5.195650
  H     -6.183545   -7.171099    5.954082
  H     -7.427223   -5.943579    5.733069
  H     -7.241838   -7.215494    4.521237
  C     -2.935708    9.006201    4.863824
  H     -3.505279    9.640204    4.165435
  H     -3.582497    8.837627    5.734770
  H     -2.066637    9.596047    5.183917
  C      4.600214    8.294627   -4.932339
  H      5.357362    8.746237   -4.271396
  H      5.121030    8.017354   -5.858571
  H      3.872560    9.083001   -5.164632
  C      9.157710   -1.888426    5.189674
  H      9.769653   -0.973274    5.233514
  H      8.994952   -2.202212    6.229624
  H      9.763509   -2.652993    4.686551
  C      5.174825   -8.134504   -4.765691
  H      5.170465   -9.015188   -4.103529
  H      4.711482   -8.452143   -5.709363
  H      6.227110   -7.889438   -4.959535

----------------------------
CARTESIAN COORDINATES (A.U.)
----------------------------
  NO LB      ZA    FRAG     MASS         X           Y           Z
   0 C     6.0000    0    12.011    1.345644    5.201105   -1.175941
   1 C     6.0000    0    12.011    3.349317    2.520770   -4.019238
   2 C     6.0000    0    12.011    4.488411    4.530454   -5.243096
   3 C     6.0000    0    12.011    2.434825    7.296671   -2.336739
   4 C     6.0000    0    12.011   -0.347704    5.360082    1.013689
   5 C     6.0000    0    12.011   -2.817714    3.099145    3.854881
   6 C     6.0000    0    12.011   -3.555027    5.284315    5.085535
   7 C     6.0000    0    12.011   -1.017778    7.620415    2.183354
   8 H     1.0000    0     1.008    3.662582    0.584598   -4.661635
   9 H     1.0000    0     1.008    5.688867    4.138349   -6.871683
  10 H     1.0000    0     1.008    2.046966    9.172028   -1.579356
  11 H     1.0000    0     1.008   -3.491569    1.256494    4.495311
  12 H     1.0000    0     1.008   -4.807344    5.122579    6.714218
  13 H     1.0000    0     1.008   -0.283771    9.391627    1.431366
  14 C     6.0000    0    12.011    3.987080   -3.835636   -1.053313
  15 C     6.0000    0    12.011    0.765685   -4.259781   -4.008234
  16 C     6.0000    0    12.011    1.998612   -6.235180   -5.196091
  17 C     6.0000    0    12.011    5.316680   -5.809870   -2.175230
  18 C     6.0000    0    12.011    4.879889   -2.447702    1.174007
  19 C     6.0000    0    12.011    3.972698    0.738240    4.058225
  20 C     6.0000    0    12.011    6.195169    0.305667    5.364740
  21 C     6.0000    0    12.011    7.148518   -2.960641    2.406230
  22 H     1.0000    0     1.008   -1.053175   -3.583134   -4.710630
  23 H     1.0000    0     1.008    1.122312   -7.086715   -6.855394
  24 H     1.0000    0     1.008    7.109460   -6.403377   -1.354435
  25 H     1.0000    0     1.008    2.665602    2.216518    4.663778
  26 H     1.0000    0     1.008    6.625673    1.489439    6.995609
  27 H     1.0000    0     1.008    8.345796   -4.482988    1.705166
  28 C     6.0000    0    12.011   -4.602978   -2.992053    1.020554
  29 C     6.0000    0    12.011   -1.494836   -3.926647    3.980069
  30 C     6.0000    0    12.011   -3.096857   -5.529329    5.282607
  31 C     6.0000    0    12.011   -6.300116   -4.579147    2.256824
  32 C     6.0000    0    12.011   -5.222952   -1.549649   -1.264814
  33 C     6.0000    0    12.011   -3.750857    1.318953   -4.245485
  34 C     6.0000    0    12.011   -6.020204    1.268505   -5.541199
  35 C     6.0000    0    12.011   -7.546703   -1.679184   -2.493702
  36 H     1.0000    0     1.008    0.445337   -3.632656    4.619126
  37 H     1.0000    0     1.008   -8.218049   -4.752087    1.527267
  38 H     1.0000    0     1.008   -2.186052    2.486379   -4.914883
  39 H     1.0000    0     1.008   -9.023694   -2.882649   -1.712107
  40 N     7.0000    0    14.007   -2.207338   -2.652246    1.899594
  41 N     7.0000    0    14.007   -1.241059    3.100020    1.861010
  42 N     7.0000    0    14.007    3.296174   -0.597063    2.004317
  43 N     7.0000    0    14.007    1.799507    2.814817   -2.026557
  44 N     7.0000    0    14.007    1.714218   -3.057942   -1.979148
  45 N     7.0000    0    14.007   -3.326067   -0.049573   -2.146612
  46 Ru   44.0000    0   101.070    0.006092   -0.082494   -0.073658
  47 H     1.0000    0     1.008   -2.367781   -6.516790    6.937914
  48 H     1.0000    0     1.008   -6.197894    2.407220   -7.249054
  49 C     6.0000    0    12.011   -2.650556    7.646199    4.269628
  50 C     6.0000    0    12.011    4.049766    7.018836   -4.418563
  51 C     6.0000    0    12.011    4.353385   -7.074530   -4.294431
  52 C     6.0000    0    12.011    7.874466   -1.587376    4.552562
  53 C     6.0000    0    12.011   -5.593041   -5.894026    4.445649
  54 C     6.0000    0    12.011   -8.017632   -0.260149   -4.681591
  55 C     6.0000    0    12.011   -7.369276   -7.554347    5.794380
  56 C     6.0000    0    12.011   -7.043247   -8.097832    8.375684
  57 C     6.0000    0    12.011   -9.446004   -8.653751    4.555854
  58 C     6.0000    0    12.011   -8.726538   -9.655079    9.655000
  59 H     1.0000    0     1.008   -5.469782   -7.256148    9.414351
  60 C     6.0000    0    12.011  -11.115197  -10.223197    5.842748
  61 C     6.0000    0    12.011  -10.801881  -10.752311    8.420809
  62 H     1.0000    0     1.008   -8.432994  -10.028930   11.666298
  63 H     1.0000    0     1.008  -12.697353  -11.074020    4.821149
  64 C     6.0000    0    12.011  -10.464272   -0.365704   -5.999501
  65 C     6.0000    0    12.011  -11.244840    1.607000   -7.601227
  66 C     6.0000    0    12.011  -12.102177   -2.437422   -5.712155
  67 C     6.0000    0    12.011  -13.556608    1.511575   -8.842556
  68 H     1.0000    0     1.008  -10.043286    3.266199   -7.855518
  69 C     6.0000    0    12.011  -14.407281   -2.528779   -6.970310
  70 C     6.0000    0    12.011  -15.192544   -0.556167   -8.556582
  71 H     1.0000    0     1.008  -14.115710    3.082262  -10.063914
  72 H     1.0000    0     1.008  -15.627570   -4.179107   -6.729224
  73 C     6.0000    0    12.011    5.217778    9.212029   -5.665822
  74 C     6.0000    0    12.011    7.472113    8.962877   -7.051086
  75 C     6.0000    0    12.011    4.117505   11.626047   -5.524692
  76 C     6.0000    0    12.011    8.574149   11.036174   -8.227858
  77 C     6.0000    0    12.011    5.220828   13.689565   -6.719717
  78 H     1.0000    0     1.008    2.338772   11.892621   -4.510440
  79 C     6.0000    0    12.011    7.476344   13.446076   -8.090896
  80 H     1.0000    0     1.008   10.336044   10.786222   -9.278863
  81 H     1.0000    0     1.008    4.303706   15.537710   -6.601318
  82 C     6.0000    0    12.011    5.732630   -9.166797   -5.497941
  83 C     6.0000    0    12.011    4.456736  -11.009716   -6.925364
  84 C     6.0000    0    12.011    8.369983   -9.390074   -5.269258
  85 C     6.0000    0    12.011    5.761573  -12.989012   -8.055532
  86 C     6.0000    0    12.011    9.666446  -11.365297   -6.418583
  87 H     1.0000    0     1.008    9.438197   -7.967480   -4.220622
  88 C     6.0000    0    12.011    8.393980  -13.214490   -7.828521
  89 H     1.0000    0     1.008    4.715647  -14.403281   -9.140492
  90 H     1.0000    0     1.008   11.721850  -11.472361   -6.232530
  91 C     6.0000    0    12.011   10.262496   -2.100546    5.880444
  92 C     6.0000    0    12.011   12.333109   -3.189809    4.622977
  93 C     6.0000    0    12.011   10.548557   -1.518892    8.457927
  94 C     6.0000    0    12.011   14.586206   -3.667875    5.888022
  95 C     6.0000    0    12.011   12.799183   -2.018073    9.715772
  96 H     1.0000    0     1.008    8.967215   -0.711482    9.512095
  97 C     6.0000    0    12.011   14.872014   -3.095787    8.460122
  98 H     1.0000    0     1.008   16.170916   -4.501515    4.856267
  99 H     1.0000    0     1.008   12.954936   -1.574195   11.728239
 100 C     6.0000    0    12.011   -3.374663   10.016954    5.527859
 101 C     6.0000    0    12.011   -5.637433   10.200938    6.907828
 102 C     6.0000    0    12.011   -1.826859   12.173196    5.400223
 103 C     6.0000    0    12.011   -6.323303   12.444757    8.089513
 104 C     6.0000    0    12.011   -2.515044   14.406110    6.600171
 105 H     1.0000    0     1.008   -0.025836   12.091806    4.393566
 106 C     6.0000    0    12.011   -4.781691   14.597843    7.962788
 107 H     1.0000    0     1.008   -8.103238   12.536375    9.135637
 108 H     1.0000    0     1.008   -1.258123   16.043096    6.492844
 109 H     1.0000    0     1.008   -6.905832    8.576050    7.027735
 110 H     1.0000    0     1.008    8.406687    7.126375   -7.179317
 111 H     1.0000    0     1.008   12.202903   -3.632273    2.610303
 112 H     1.0000    0     1.008    2.403363  -10.921721   -7.122499
 113 H     1.0000    0     1.008  -11.550144   -4.033934   -4.525476
 114 H     1.0000    0     1.008   -9.737215   -8.324383    2.538677
 115 C     6.0000    0    12.011  -17.693852   -0.625327   -9.859540
 116 H     1.0000    0     1.008  -19.118174    0.462303   -8.799706
 117 H     1.0000    0     1.008  -17.602436    0.220249  -11.753097
 118 H     1.0000    0     1.008  -18.422277   -2.559016  -10.038089
 119 C     6.0000    0    12.011  -12.630136  -12.384471    9.818356
 120 H     1.0000    0     1.008  -11.685207  -13.551413   11.251584
 121 H     1.0000    0     1.008  -14.035417  -11.231737   10.833930
 122 H     1.0000    0     1.008  -13.685091  -13.635308    8.543900
 123 C     6.0000    0    12.011   -5.547684   17.019253    9.191295
 124 H     1.0000    0     1.008   -6.624017   18.217345    7.871531
 125 H     1.0000    0     1.008   -6.769938   16.700695   10.837145
 126 H     1.0000    0     1.008   -3.905378   18.133901    9.796183
 127 C     6.0000    0    12.011    8.693145   15.674573   -9.320770
 128 H     1.0000    0     1.008   10.123947   16.527993   -8.071769
 129 H     1.0000    0     1.008    9.677344   15.150603  -11.071095
 130 H     1.0000    0     1.008    7.318078   17.164384   -9.759740
 131 C     6.0000    0    12.011   17.305564   -3.568608    9.807063
 132 H     1.0000    0     1.008   18.461969   -1.839221    9.889908
 133 H     1.0000    0     1.008   16.997996   -4.161578   11.772283
 134 H     1.0000    0     1.008   18.450358   -5.013430    8.856298
 135 C     6.0000    0    12.011    9.779002  -15.371985   -9.005851
 136 H     1.0000    0     1.008    9.770763  -17.036236   -7.754546
 137 H     1.0000    0     1.008    8.903411  -15.972236  -10.789132
 138 H     1.0000    0     1.008   11.767533  -14.908877   -9.372163

--------------------------------
INTERNAL COORDINATES (ANGSTROEM)
--------------------------------
 C      0   0   0     0.000000000000     0.00000000     0.00000000
 C      1   0   0     2.323759069450     0.00000000     0.00000000
 C      2   1   0     1.383390728455    91.87466370     0.00000000
 C      1   2   3     1.392567566117    90.66421357     0.13291231
 C      1   2   3     1.467183981474   145.59111878   180.46706671
 C      5   1   2     2.323874595898   145.58290619   358.58015319
 C      6   5   1     1.383280301414    91.88282527   180.29787202
 C      5   1   2     1.392673690795   123.76194252   178.70410506
 H      2   1   3     1.092154443738   147.50145510   180.93454183
 H      3   2   1     1.090559117740   118.52258673   181.17034759
 H      4   1   2     1.089774456221   119.01139766   181.17722752
 H      6   5   1     1.092157571344   147.57133467     1.23087822
 H      7   6   5     1.090550265149   118.54576562   181.10078412
 H      8   5   1     1.089828212082   119.05334597     1.10821565
 C      9   2   1     3.024364970208   122.52475431   323.52643919
 C     15   9   2     2.324097083117    66.93751748   120.97878201
 C     16  15   9     1.383301488626    91.87747803   111.50980467
 C     15   9   2     1.392463921789   109.86297438   202.88749758
 C     15   9   2     1.466921071869    97.95137746   333.18919989
 C     19  15   9     2.324282968585   145.51413395    60.96450455
 C     20  19  15     1.383318087032    91.86621177   178.48821542
 C     19  15   9     1.392868270599   123.79120093   239.45636661
 H     16  15   9     1.092140342731   147.53658695   292.37012084
 H     17  16  15     1.090451559455   118.52931174   181.08232164
 H     18  15   9     1.089644119802   119.09279948   115.88693620
 H     20  19  15     1.092273342479   147.45077871   358.00979040
 H     21  20  19     1.090462671509   118.56190368   178.86173746
 H     22  19  15     1.089964078598   119.05784750   359.61394252
 C     12   6   5     2.963359758926   123.34032276   324.14998514
 C     29  12   6     2.324331877031    66.60320112   120.24998395
 C     30  29  12     1.383134525687    91.86399696   108.46591052
 C     29  12   6     1.392803105726   107.09764290   203.35885114
 C     29  12   6     1.467243882035    99.27315875   333.17565374
 C     33  29  12     2.323584549744   145.52874167    60.64674385
 C     34  33  29     1.383103264919    91.88090901   179.37029748
 C     33  29  12     1.392727735627   123.82635270   239.78515822
 H     30  29  12     1.092093052642   147.52046779   287.94133308
 H     32  29  12     1.089722968445   118.99812741   112.94187531
 H     34  33  29     1.092156834436   147.55368826     0.43513578
 H     36  33  29     1.089734999998   118.99973254     1.38302584
 N     30  29  12     1.344998819574    31.06537023   289.36122385
 N      6   5   1     1.345126754470    31.07064481     0.63755137
 N     20  19  15     1.344907261749    31.04123943   358.73640343
 N      2   1   3     1.344896222147    31.07014577   180.23998775
 N     16  15   9     1.345122461368    31.08102343   291.74962330
 N     34  33  29     1.344837080373    31.08627703   359.38011655
 Ru    41  30  29     2.076413543475   125.58238402   177.96802263
 H     31  30  29     1.090499725935   118.50712961   178.54953961
 H     35  34  33     1.090286678873   118.36859618   181.18325998
 C      8   5   1     1.401987212373   121.01418067   179.88484285
 C      4   1   2     1.401992032927   121.02355517   359.90758988
 C     18  15   9     1.401901768472   121.03011621   294.29868684
 C     22  19  15     1.402030075115   120.95712522   181.00599842
 C     32  29  12     1.402051422315   121.01138554   294.56346004
 C     36  33  29     1.402298942532   121.06819709   180.33332036
 C     54  32  29     1.471336540561   121.77616114   179.24020907
 C     56  54  32     1.406536587088   120.98613605   204.07456339
 C     56  54  32     1.405604359786   121.36208052    24.12284651
 C     57  56  54     1.389544950660   121.04942713   179.66586530
 H     57  56  54     1.092600974961   119.91192731     1.03083448
 C     58  56  54     1.390584941185   121.02944119   179.93203543
 C     61  58  56     1.402521882548   121.36554186     0.47160902
 H     59  57  56     1.093650864923   119.36455216   180.55840364
 H     61  58  56     1.093590817548   119.34719774   180.92471395
 C     55  36  33     1.471652659206   121.82194418   180.23616136
 C     65  55  36     1.406693463406   121.04482231   158.03246174
 C     65  55  36     1.405791546229   121.38321791   337.86589530
 C     66  65  55     1.389458075986   121.09251632   180.12775267
 H     66  65  55     1.092380632632   119.98538805   358.88684210
 C     67  65  55     1.390519136217   121.07648271   180.23229928
 C     70  67  65     1.402478530934   121.37363376   359.57170307
 H     68  66  65     1.093666073034   119.33698659   179.53317131
 H     70  67  65     1.093594302192   119.33391074   179.11694260
 C     51   4   1     1.471265201590   121.72606541   180.04950208
 C     74  51   4     1.406363634152   121.07972809   155.90424309
 C     74  51   4     1.405859317947   121.26273716   335.64842605
 C     75  74  51     1.389817107964   121.02857460   180.01987956
 C     76  74  51     1.390388693531   121.03472717   180.39522290
 H     76  74  51     1.092678552645   120.01082416   358.59406892
 C     78  76  74     1.402746463847   121.36093118   359.50847965
 H     77  75  74     1.093665295513   119.34687457   179.49764703
 H     78  76  74     1.093589137717   119.33672742   179.00886687
 C     52  18  15     1.471106341338   121.68066249   180.12368405
 C     83  52  18     1.406237591318   121.08289348   155.69075879
 C     83  52  18     1.405837559156   121.23288539   335.48013348
 C     84  83  52     1.389781845465   121.01478833   180.17506377
 C     85  83  52     1.390364510241   121.02303685   180.25896759
 H     85  83  52     1.092785081998   119.95609261   358.48467733
 C     87  85  83     1.402729982801   121.34875572   359.50048756
 H     86  84  83     1.093651370454   119.35344169   179.46217412
 H     87  85  83     1.093588516897   119.36257117   179.02009383
 C     53  22  19     1.471198457065   121.77651453   179.99570213
 C     92  53  22     1.405576118657   121.27716285    25.48169398
 C     92  53  22     1.406414081257   121.01485599   205.56735282
 C     93  92  53     1.390572223495   121.00378579   179.93400662
 C     94  92  53     1.389699680706   121.00736508   179.59999189
 H     94  92  53     1.092699567234   119.88420516     1.35956834
 C     95  93  92     1.402536478725   121.35739638     0.34429689
 H     95  93  92     1.093589932870   119.37499072   180.54051129
 H     96  94  92     1.093658674196   119.35100237   181.02255821
 C     50   8   5     1.471070690072   121.68469157   179.93660284
 C    101  50   8     1.405888416604   121.06476777   155.55389256
 C    101  50   8     1.406195117645   121.23453860   335.34121633
 C    102 101  50     1.390188258019   121.00757584   180.19960775
 C    103 101  50     1.389972049452   121.01391429   180.23841351
 H    103 101  50     1.092679128793   119.96519130   358.39443367
 C    104 102 101     1.402909179488   121.35545448   359.61239663
 H    104 102 101     1.093610694146   119.36807248   179.45088208
 H    105 103 101     1.093630818657   119.35917694   179.02370668
 H    102 101  50     1.092655131725   119.92479674   358.85498856
 H     75  74  51     1.092544043826   119.98251780   358.65223203
 H     93  92  53     1.092668703445   120.01148908     1.41746275
 H     84  83  52     1.092586823365   119.94882113   358.77245683
 H     67  65  55     1.092439757031   120.02673795   358.56240438
 H     58  56  54     1.092502868635   119.98880371     1.71958446
 C     71  70  67     1.492901122260   121.39134499   181.47133033
 H    116  71  70     1.101766984422   111.01619112    97.21142988
 H    116  71  70     1.098461970645   111.85579047   215.84588065
 H    116  71  70     1.097533815929   111.96287859   337.83160987
 C     62  61  58     1.492955285045   121.38121679   178.43076568
 H    120  62  61     1.098446091172   111.85509302   144.34353702
 H    120  62  61     1.101782788489   111.02083092   262.98287628
 H    120  62  61     1.097549558120   111.97002980    22.34926355
 C    107 104 102     1.492917755720   121.22201608   178.78757588
 H    124 107 104     1.101870284276   110.98951892   269.18629710
 H    124 107 104     1.097861621022   111.93907913    28.23201449
 H    124 107 104     1.098026518535   111.90731992   150.29984336
 C     80  78  76     1.492935624985   121.32708622   181.50980046
 H    128  80  78     1.101848599061   111.01615787    93.61663080
 H    128  80  78     1.098196403295   111.88717190   212.41039754
 H    128  80  78     1.097713052414   111.94109440   334.44220849
 C     98  95  93     1.492989908933   121.34200450   181.05648000
 H    132  98  95     1.101771012485   111.03087302    96.56421926
 H    132  98  95     1.098384187277   111.84375469   215.21855926
 H    132  98  95     1.097582743587   111.96090646   337.19932371
 C     89  87  85     1.492915146333   121.31826863   181.61418068
 H    136  89  87     1.101853815939   111.00877421    93.84522666
 H    136  89  87     1.098224983122   111.87896055   212.63003687
 H    136  89  87     1.097696024370   111.93691605   334.65746036

---------------------------
INTERNAL COORDINATES (A.U.)
---------------------------
 C      0   0   0     0.000000000000     0.00000000     0.00000000
 C      1   0   0     4.391268242477     0.00000000     0.00000000
 C      2   1   0     2.614229612985    91.87466370     0.00000000
 C      1   2   3     2.631571322942    90.66421357     0.13291231
 C      1   2   3     2.772575913062   145.59111878   180.46706671
 C      5   1   2     4.391486555825   145.58290619   358.58015319
 C      6   5   1     2.614020936121    91.88282527   180.29787202
 C      5   1   2     2.631771869520   123.76194252   178.70410506
 H      2   1   3     2.063872794610   147.50145510   180.93454183
 H      3   2   1     2.060858065380   118.52258673   181.17034759
 H      4   1   2     2.059375270001   119.01139766   181.17722752
 H      6   5   1     2.063878704928   147.57133467     1.23087822
 H      7   6   5     2.060841336407   118.54576562   181.10078412
 H      8   5   1     2.059476853856   119.05334597     1.10821565
 C      9   2   1     5.715221522718   122.52475431   323.52643919
 C     15   9   2     4.391906995737    66.93751748   120.97878201
 C     16  15   9     2.614060974148    91.87747803   111.50980467
 C     15   9   2     2.631375463548   109.86297438   202.88749758
 C     15   9   2     2.772079085911    97.95137746   333.18919989
 C     19  15   9     4.392258268363   145.51413395    60.96450455
 C     20  19  15     2.614092340590    91.86621177   178.48821542
 C     19  15   9     2.632139572060   123.79120093   239.45636661
 H     16  15   9     2.063846147569   147.53658695   292.37012084
 H     17  16  15     2.060654809677   118.52931174   181.08232164
 H     18  15   9     2.059128969864   119.09279948   115.88693620
 H     20  19  15     2.064097480669   147.45077871   358.00979040
 H     21  20  19     2.060675808417   118.56190368   178.86173746
 H     22  19  15     2.059733604362   119.05784750   359.61394252
 C     12   6   5     5.599938380654   123.34032276   324.14998514
 C     29  12   6     4.392350691932    66.60320112   120.24998395
 C     30  29  12     2.613745459919    91.86399696   108.46591052
 C     29  12   6     2.632016428298   107.09764290   203.35885114
 C     29  12   6     2.772689108718    99.27315875   333.17565374
 C     33  29  12     4.390938448028   145.52874167    60.64674385
 C     34  33  29     2.613686385629    91.88090901   179.37029748
 C     33  29  12     2.631873999452   123.82635270   239.78515822
 H     30  29  12     2.063756782252   147.52046779   287.94133308
 H     32  29  12     2.059277972205   118.99812741   112.94187531
 H     34  33  29     2.063877312375   147.55368826     0.43513578
 H     36  33  29     2.059300708544   118.99973254     1.38302584
 N     30  29  12     2.541679419443    31.06537023   289.36122385
 N      6   5   1     2.541921181358    31.07064481     0.63755137
 N     20  19  15     2.541506400228    31.04123943   358.73640343
 N      2   1   3     2.541485538404    31.07014577   180.23998775
 N     16  15   9     2.541913068571    31.08102343   291.74962330
 N     34  33  29     2.541373776647    31.08627703   359.38011655
 Ru    41  30  29     3.923852937932   125.58238402   177.96802263
 H     31  30  29     2.060745831134   118.50712961   178.54953961
 H     35  34  33     2.060343230533   118.36859618   181.18325998
 C      8   5   1     2.649371874645   121.01418067   179.88484285
 C      4   1   2     2.649380984172   121.02355517   359.90758988
 C     18  15   9     2.649210409073   121.03011621   294.29868684
 C     22  19  15     2.649452873488   120.95712522   181.00599842
 C     32  29  12     2.649493213850   121.01138554   294.56346004
 C     36  33  29     2.649960959273   121.06819709   180.33332036
 C     54  32  29     2.780423112491   121.77616114   179.24020907
 C     56  54  32     2.657968946937   120.98613605   204.07456339
 C     56  54  32     2.656207292641   121.36208052    24.12284651
 C     57  56  54     2.625859407521   121.04942713   179.66586530
 H     57  56  54     2.064716616331   119.91192731     1.03083448
 C     58  56  54     2.627824704795   121.02944119   179.93203543
 C     61  58  56     2.650382254847   121.36554186     0.47160902
 H     59  57  56     2.066700620831   119.36455216   180.55840364
 H     61  58  56     2.066587147737   119.34719774   180.92471395
 C     55  36  33     2.781020490157   121.82194418   180.23616136
 C     65  55  36     2.658265400215   121.04482231   158.03246174
 C     65  55  36     2.656561023755   121.38321791   337.86589530
 C     66  65  55     2.625695238179   121.09251632   180.12775267
 H     66  65  55     2.064300229675   119.98538805   358.88684210
 C     67  65  55     2.627700351427   121.07648271   180.23229928
 C     70  67  65     2.650300332170   121.37363376   359.57170307
 H     68  66  65     2.066729359995   119.33698659   179.53317131
 H     70  67  65     2.066593732759   119.33391074   179.11694260
 C     51   4   1     2.780288301374   121.72606541   180.04950208
 C     74  51   4     2.657642113253   121.07972809   155.90424309
 C     74  51   4     2.656689093742   121.26273716   335.64842605
 C     75  74  51     2.626373710290   121.02857460   180.01987956
 C     76  74  51     2.627453850474   121.03472717   180.39522290
 H     76  74  51     2.064863216909   120.01082416   358.59406892
 C     78  76  74     2.650806651996   121.36093118   359.50847965
 H     77  75  74     2.066727890694   119.34687457   179.49764703
 H     78  76  74     2.066583973316   119.33672742   179.00886687
 C     52  18  15     2.779988099004   121.68066249   180.12368405
 C     83  52  18     2.657403926817   121.08289348   155.69075879
 C     83  52  18     2.656647975585   121.23288539   335.48013348
 C     84  83  52     2.626307073825   121.01478833   180.17506377
 C     85  83  52     2.627408150680   121.02303685   180.25896759
 H     85  83  52     2.065064528211   119.95609261   358.48467733
 C     87  85  83     2.650775507335   121.34875572   359.50048756
 H     86  84  83     2.066701576147   119.35344169   179.46217412
 H     87  85  83     2.066582800137   119.36257117   179.02009383
 C     53  22  19     2.780162172500   121.77651453   179.99570213
 C     92  53  22     2.656153924642   121.27716285    25.48169398
 C     92  53  22     2.657737444466   121.01485599   205.56735282
 C     93  92  53     2.627800671844   121.00378579   179.93400662
 C     94  92  53     2.626151804932   121.00736508   179.59999189
 H     94  92  53     2.064902928726   119.88420516     1.35956834
 C     95  93  92     2.650409837624   121.35739638     0.34429689
 H     95  93  92     2.066585475937   119.37499072   180.54051129
 H     96  94  92     2.066715378219   119.35100237   181.02255821
 C     50   8   5     2.779920727875   121.68469157   179.93660284
 C    101  50   8     2.656744082233   121.06476777   155.55389256
 C    101  50   8     2.657323663206   121.23453860   335.34121633
 C    102 101  50     2.627075082249   121.00757584   180.19960775
 C    103 101  50     2.626666507270   121.01391429   180.23841351
 H    103 101  50     2.064864305671   119.96519130   358.39443367
 C    104 102 101     2.651114139997   121.35545448   359.61239663
 H    104 102 101     2.066624709063   119.36807248   179.45088208
 H    105 103 101     2.066662738878   119.35917694   179.02370668
 H    102 101  50     2.064818957783   119.92479674   358.85498856
 H     75  74  51     2.064609032077   119.98251780   358.65223203
 H     93  92  53     2.064844604619   120.01148908     1.41746275
 H     84  83  52     2.064689873690   119.94882113   358.77245683
 H     67  65  55     2.064411958596   120.02673795   358.56240438
 H     58  56  54     2.064531222244   119.98880371     1.71958446
 C     71  70  67     2.821174266095   121.39134499   181.47133033
 H    116  71  70     2.082037863954   111.01619112    97.21142988
 H    116  71  70     2.075792293047   111.85579047   215.84588065
 H    116  71  70     2.074038334824   111.96287859   337.83160987
 C     62  61  58     2.821276618926   121.38121679   178.43076568
 H    120  62  61     2.075762285190   111.85509302   144.34353702
 H    120  62  61     2.082067729313   111.02083092   262.98287628
 H    120  62  61     2.074068083253   111.97002980    22.34926355
 C    107 104 102     2.821205698780   121.22201608   178.78757588
 H    124 107 104     2.082233072388   110.98951892   269.18629710
 H    124 107 104     2.074657796674   111.93907913    28.23201449
 H    124 107 104     2.074969407814   111.90731992   150.29984336
 C     80  78  76     2.821239466797   121.32708622   181.50980046
 H    128  80  78     2.082192093270   111.01615787    93.61663080
 H    128  80  78     2.075290443484   111.88717190   212.41039754
 H    128  80  78     2.074377042694   111.94109440   334.44220849
 C     98  95  93     2.821342048592   121.34200450   181.05648000
 H    132  98  95     2.082045475890   111.03087302    96.56421926
 H    132  98  95     2.075645303783   111.84375469   215.21855926
 H    132  98  95     2.074130794697   111.96090646   337.19932371
 C     89  87  85     2.821200767751   121.31826863   181.61418068
 H    136  89  87     2.082201951741   111.00877421    93.84522666
 H    136  89  87     2.075344451531   111.87896055   212.63003687
 H    136  89  87     2.074344864353   111.93691605   334.65746036

---------------------
BASIS SET INFORMATION
---------------------
There are 4 groups of distinct atoms

 Group   1 Type C   : 7s4p1d contracted to 3s2p1d pattern {511/31/1}
 Group   2 Type H   : 4s1p contracted to 2s1p pattern {31/1}
 Group   3 Type N   : 7s4p1d contracted to 3s2p1d pattern {511/31/1}
 Group   4 Type Ru  : 22s15p9d1f contracted to 15s10p5d1f pattern {811111111111111/6111111111/51111/1}

Atom   0C    basis set group =>   1
Atom   1C    basis set group =>   1
Atom   2C    basis set group =>   1
Atom   3C    basis set group =>   1
Atom   4C    basis set group =>   1
Atom   5C    basis set group =>   1
Atom   6C    basis set group =>   1
Atom   7C    basis set group =>   1
Atom   8H    basis set group =>   2
Atom   9H    basis set group =>   2
Atom  10H    basis set group =>   2
Atom  11H    basis set group =>   2
Atom  12H    basis set group =>   2
Atom  13H    basis set group =>   2
Atom  14C    basis set group =>   1
Atom  15C    basis set group =>   1
Atom  16C    basis set group =>   1
Atom  17C    basis set group =>   1
Atom  18C    basis set group =>   1
Atom  19C    basis set group =>   1
Atom  20C    basis set group =>   1
Atom  21C    basis set group =>   1
Atom  22H    basis set group =>   2
Atom  23H    basis set group =>   2
Atom  24H    basis set group =>   2
Atom  25H    basis set group =>   2
Atom  26H    basis set group =>   2
Atom  27H    basis set group =>   2
Atom  28C    basis set group =>   1
Atom  29C    basis set group =>   1
Atom  30C    basis set group =>   1
Atom  31C    basis set group =>   1
Atom  32C    basis set group =>   1
Atom  33C    basis set group =>   1
Atom  34C    basis set group =>   1
Atom  35C    basis set group =>   1
Atom  36H    basis set group =>   2
Atom  37H    basis set group =>   2
Atom  38H    basis set group =>   2
Atom  39H    basis set group =>   2
Atom  40N    basis set group =>   3
Atom  41N    basis set group =>   3
Atom  42N    basis set group =>   3
Atom  43N    basis set group =>   3
Atom  44N    basis set group =>   3
Atom  45N    basis set group =>   3
Atom  46Ru   basis set group =>   4
Atom  47H    basis set group =>   2
Atom  48H    basis set group =>   2
Atom  49C    basis set group =>   1
Atom  50C    basis set group =>   1
Atom  51C    basis set group =>   1
Atom  52C    basis set group =>   1
Atom  53C    basis set group =>   1
Atom  54C    basis set group =>   1
Atom  55C    basis set group =>   1
Atom  56C    basis set group =>   1
Atom  57C    basis set group =>   1
Atom  58C    basis set group =>   1
Atom  59H    basis set group =>   2
Atom  60C    basis set group =>   1
Atom  61C    basis set group =>   1
Atom  62H    basis set group =>   2
Atom  63H    basis set group =>   2
Atom  64C    basis set group =>   1
Atom  65C    basis set group =>   1
Atom  66C    basis set group =>   1
Atom  67C    basis set group =>   1
Atom  68H    basis set group =>   2
Atom  69C    basis set group =>   1
Atom  70C    basis set group =>   1
Atom  71H    basis set group =>   2
Atom  72H    basis set group =>   2
Atom  73C    basis set group =>   1
Atom  74C    basis set group =>   1
Atom  75C    basis set group =>   1
Atom  76C    basis set group =>   1
Atom  77C    basis set group =>   1
Atom  78H    basis set group =>   2
Atom  79C    basis set group =>   1
Atom  80H    basis set group =>   2
Atom  81H    basis set group =>   2
Atom  82C    basis set group =>   1
Atom  83C    basis set group =>   1
Atom  84C    basis set group =>   1
Atom  85C    basis set group =>   1
Atom  86C    basis set group =>   1
Atom  87H    basis set group =>   2
Atom  88C    basis set group =>   1
Atom  89H    basis set group =>   2
Atom  90H    basis set group =>   2
Atom  91C    basis set group =>   1
Atom  92C    basis set group =>   1
Atom  93C    basis set group =>   1
Atom  94C    basis set group =>   1
Atom  95C    basis set group =>   1
Atom  96H    basis set group =>   2
Atom  97C    basis set group =>   1
Atom  98H    basis set group =>   2
Atom  99H    basis set group =>   2
Atom 100C    basis set group =>   1
Atom 101C    basis set group =>   1
Atom 102C    basis set group =>   1
Atom 103C    basis set group =>   1
Atom 104C    basis set group =>   1
Atom 105H    basis set group =>   2
Atom 106C    basis set group =>   1
Atom 107H    basis set group =>   2
Atom 108H    basis set group =>   2
Atom 109H    basis set group =>   2
Atom 110H    basis set group =>   2
Atom 111H    basis set group =>   2
Atom 112H    basis set group =>   2
Atom 113H    basis set group =>   2
Atom 114H    basis set group =>   2
Atom 115C    basis set group =>   1
Atom 116H    basis set group =>   2
Atom 117H    basis set group =>   2
Atom 118H    basis set group =>   2
Atom 119C    basis set group =>   1
Atom 120H    basis set group =>   2
Atom 121H    basis set group =>   2
Atom 122H    basis set group =>   2
Atom 123C    basis set group =>   1
Atom 124H    basis set group =>   2
Atom 125H    basis set group =>   2
Atom 126H    basis set group =>   2
Atom 127C    basis set group =>   1
Atom 128H    basis set group =>   2
Atom 129H    basis set group =>   2
Atom 130H    basis set group =>   2
Atom 131C    basis set group =>   1
Atom 132H    basis set group =>   2
Atom 133H    basis set group =>   2
Atom 134H    basis set group =>   2
Atom 135C    basis set group =>   1
Atom 136H    basis set group =>   2
Atom 137H    basis set group =>   2
Atom 138H    basis set group =>   2
---------------------------------
AUXILIARY/J BASIS SET INFORMATION
---------------------------------
There are 4 groups of distinct atoms

 Group   1 Type C   : 12s5p4d2f1g contracted to 12s5p4d2f1g pattern {111111111111/11111/1111/11/1}
 Group   2 Type H   : 5s2p1d contracted to 5s2p1d pattern {11111/11/1}
 Group   3 Type N   : 12s5p4d2f1g contracted to 12s5p4d2f1g pattern {111111111111/11111/1111/11/1}
 Group   4 Type Ru  : 23s7p6d3f4g contracted to 23s7p6d3f4g pattern {11111111111111111111111/1111111/111111/111/1111}

Atom   0C    basis set group =>   1
Atom   1C    basis set group =>   1
Atom   2C    basis set group =>   1
Atom   3C    basis set group =>   1
Atom   4C    basis set group =>   1
Atom   5C    basis set group =>   1
Atom   6C    basis set group =>   1
Atom   7C    basis set group =>   1
Atom   8H    basis set group =>   2
Atom   9H    basis set group =>   2
Atom  10H    basis set group =>   2
Atom  11H    basis set group =>   2
Atom  12H    basis set group =>   2
Atom  13H    basis set group =>   2
Atom  14C    basis set group =>   1
Atom  15C    basis set group =>   1
Atom  16C    basis set group =>   1
Atom  17C    basis set group =>   1
Atom  18C    basis set group =>   1
Atom  19C    basis set group =>   1
Atom  20C    basis set group =>   1
Atom  21C    basis set group =>   1
Atom  22H    basis set group =>   2
Atom  23H    basis set group =>   2
Atom  24H    basis set group =>   2
Atom  25H    basis set group =>   2
Atom  26H    basis set group =>   2
Atom  27H    basis set group =>   2
Atom  28C    basis set group =>   1
Atom  29C    basis set group =>   1
Atom  30C    basis set group =>   1
Atom  31C    basis set group =>   1
Atom  32C    basis set group =>   1
Atom  33C    basis set group =>   1
Atom  34C    basis set group =>   1
Atom  35C    basis set group =>   1
Atom  36H    basis set group =>   2
Atom  37H    basis set group =>   2
Atom  38H    basis set group =>   2
Atom  39H    basis set group =>   2
Atom  40N    basis set group =>   3
Atom  41N    basis set group =>   3
Atom  42N    basis set group =>   3
Atom  43N    basis set group =>   3
Atom  44N    basis set group =>   3
Atom  45N    basis set group =>   3
Atom  46Ru   basis set group =>   4
Atom  47H    basis set group =>   2
Atom  48H    basis set group =>   2
Atom  49C    basis set group =>   1
Atom  50C    basis set group =>   1
Atom  51C    basis set group =>   1
Atom  52C    basis set group =>   1
Atom  53C    basis set group =>   1
Atom  54C    basis set group =>   1
Atom  55C    basis set group =>   1
Atom  56C    basis set group =>   1
Atom  57C    basis set group =>   1
Atom  58C    basis set group =>   1
Atom  59H    basis set group =>   2
Atom  60C    basis set group =>   1
Atom  61C    basis set group =>   1
Atom  62H    basis set group =>   2
Atom  63H    basis set group =>   2
Atom  64C    basis set group =>   1
Atom  65C    basis set group =>   1
Atom  66C    basis set group =>   1
Atom  67C    basis set group =>   1
Atom  68H    basis set group =>   2
Atom  69C    basis set group =>   1
Atom  70C    basis set group =>   1
Atom  71H    basis set group =>   2
Atom  72H    basis set group =>   2
Atom  73C    basis set group =>   1
Atom  74C    basis set group =>   1
Atom  75C    basis set group =>   1
Atom  76C    basis set group =>   1
Atom  77C    basis set group =>   1
Atom  78H    basis set group =>   2
Atom  79C    basis set group =>   1
Atom  80H    basis set group =>   2
Atom  81H    basis set group =>   2
Atom  82C    basis set group =>   1
Atom  83C    basis set group =>   1
Atom  84C    basis set group =>   1
Atom  85C    basis set group =>   1
Atom  86C    basis set group =>   1
Atom  87H    basis set group =>   2
Atom  88C    basis set group =>   1
Atom  89H    basis set group =>   2
Atom  90H    basis set group =>   2
Atom  91C    basis set group =>   1
Atom  92C    basis set group =>   1
Atom  93C    basis set group =>   1
Atom  94C    basis set group =>   1
Atom  95C    basis set group =>   1
Atom  96H    basis set group =>   2
Atom  97C    basis set group =>   1
Atom  98H    basis set group =>   2
Atom  99H    basis set group =>   2
Atom 100C    basis set group =>   1
Atom 101C    basis set group =>   1
Atom 102C    basis set group =>   1
Atom 103C    basis set group =>   1
Atom 104C    basis set group =>   1
Atom 105H    basis set group =>   2
Atom 106C    basis set group =>   1
Atom 107H    basis set group =>   2
Atom 108H    basis set group =>   2
Atom 109H    basis set group =>   2
Atom 110H    basis set group =>   2
Atom 111H    basis set group =>   2
Atom 112H    basis set group =>   2
Atom 113H    basis set group =>   2
Atom 114H    basis set group =>   2
Atom 115C    basis set group =>   1
Atom 116H    basis set group =>   2
Atom 117H    basis set group =>   2
Atom 118H    basis set group =>   2
Atom 119C    basis set group =>   1
Atom 120H    basis set group =>   2
Atom 121H    basis set group =>   2
Atom 122H    basis set group =>   2
Atom 123C    basis set group =>   1
Atom 124H    basis set group =>   2
Atom 125H    basis set group =>   2
Atom 126H    basis set group =>   2
Atom 127C    basis set group =>   1
Atom 128H    basis set group =>   2
Atom 129H    basis set group =>   2
Atom 130H    basis set group =>   2
Atom 131C    basis set group =>   1
Atom 132H    basis set group =>   2
Atom 133H    basis set group =>   2
Atom 134H    basis set group =>   2
Atom 135C    basis set group =>   1
Atom 136H    basis set group =>   2
Atom 137H    basis set group =>   2
Atom 138H    basis set group =>   2


           ************************************************************
           *        Program running with 8 parallel MPI-processes     *
           *              working on a common directory               *
           ************************************************************
------------------------------------------------------------------------------
                           ORCA GTO INTEGRAL CALCULATION
                           -- RI-GTO INTEGRALS CHOSEN --
------------------------------------------------------------------------------
------------------------------------------------------------------------------
                   ___                                                        
                  /   \      - P O W E R E D   B Y -                         
                 /     \                                                     
                 |  |  |   _    _      __       _____    __    __             
                 |  |  |  | |  | |    /  \     |  _  \  |  |  /  |          
                  \  \/   | |  | |   /    \    | | | |  |  | /  /          
                 / \  \   | |__| |  /  /\  \   | |_| |  |  |/  /          
                |  |  |   |  __  | /  /__\  \  |    /   |      \           
                |  |  |   | |  | | |   __   |  |    \   |  |\   \          
                \     /   | |  | | |  |  |  |  | |\  \  |  | \   \       
                 \___/    |_|  |_| |__|  |__|  |_| \__\ |__|  \__/        
                                                                              
                      - O R C A' S   B I G   F R I E N D -                    
                                      &                                       
                       - I N T E G R A L  F E E D E R -                       
                                                                              
 v1 FN, 2020, v2 2021                                                         
------------------------------------------------------------------------------


Reading SHARK input file Ru-arylbpy_3_SOC-M06L_def2SVP.SHARKINP.tmp ... ok
----------------------
SHARK INTEGRAL PACKAGE
----------------------

Number of atoms                             ...    139
Number of basis functions                   ...   1469
Number of shells                            ...    679
Maximum angular momentum                    ...      3
Integral batch strategy                     ... SHARK/LIBINT Hybrid
RI-J (if used) integral strategy            ... SPLIT-RIJ (Revised 2003 algorithm where possible)
Printlevel                                  ...      1
Contraction scheme used                     ... SEGMENTED contraction
Coulomb Range Separation                    ... NOT USED
Exchange Range Separation                   ... NOT USED
Finite Nucleus Model                        ... NOT USED
Auxiliary Coulomb fitting basis             ... AVAILABLE
   # of basis functions in Aux-J            ...   6551
   # of shells in Aux-J                     ...   2395
   Maximum angular momentum in Aux-J        ...      4
Auxiliary J/K fitting basis                 ... NOT available
Auxiliary Correlation fitting basis         ... NOT available
Auxiliary 'external' fitting basis          ... NOT available
Integral threshold                          ...     1.000000e-10
Primitive cut-off                           ...     1.000000e-11
Primitive pair pre-selection threshold      ...     1.000000e-11

Calculating pre-screening integrals         ... done (  0.1 sec) Dimension = 679
Organizing shell pair data                  ... done (  0.3 sec)
Shell pair information
Total number of shell pairs                 ...    230860
Shell pairs after pre-screening             ...     71938
Total number of primitive shell pairs       ...    824933
Primitive shell pairs kept                  ...    145505
          la=0 lb=0:  21667 shell pairs
          la=1 lb=0:  27187 shell pairs
          la=1 lb=1:   8696 shell pairs
          la=2 lb=0:   8236 shell pairs
          la=2 lb=1:   5142 shell pairs
          la=2 lb=2:    715 shell pairs
          la=3 lb=0:    159 shell pairs
          la=3 lb=1:    100 shell pairs
          la=3 lb=2:     35 shell pairs
          la=3 lb=3:      1 shell pairs

Calculating one electron integrals          ... done (  0.2 sec)
Calculating RI/J V-Matrix + Cholesky decomp.... done (  3.0 sec)
Calculating Nuclear repulsion               ... done (  0.0 sec) ENN=  13988.385230675525 Eh

SHARK setup successfully completed in   4.2 seconds

Maximum memory used throughout the entire GTOINT-calculation: 225.7 MB


           ************************************************************
           *        Program running with 8 parallel MPI-processes     *
           *              working on a common directory               *
           ************************************************************
------------------------------------------------------------------------------
                          ORCA RELATIVISTIC HAMILTONIAN
------------------------------------------------------------------------------

Relativistic Method            ... ZORA(MP)
Treatment of potential         ... Van Wuellen
Nucleus model                  ... Point Nucleus
Speed of light used            ... 137.03598950000000


            *************************************************
            *         ZERO ORDER REGULAR APPROXIMATION      *
            *                     ZORA(MP)                  *
            *            Programmed by FN according to      *
            *                   C. van Wuellen              *
            *       J. Chem. Phys. (1998) vol 109, 392-399  *
            *************************************************

Terms included in model potential: +V(e,N)+V(C)+V(Xa)+V(VWN-V)
Basis function cutoff value   ... 1.000000e-10
Loading the fitted atomic densities (ZORA)   ... done
Calculating the cutoffs                      ... done
Number of fit functions                      ... 1187
Setting up the integration grid ... done

Maximum memory used throughout the entire REL-calculation: 443.2 MB


           ************************************************************
           *        Program running with 8 parallel MPI-processes     *
           *              working on a common directory               *
           ************************************************************
-------------------------------------------------------------------------------
                                 ORCA SCF
-------------------------------------------------------------------------------

------------
SCF SETTINGS
------------
Hamiltonian:
 Density Functional     Method          .... DFT(GTOs)
 Exchange Functional    Exchange        .... M06L
 Correlation Functional Correlation     .... M06L
 Gradients option       PostSCFGGA      .... off
   Density functional embedding theory  .... OFF
 RI-approximation to the Coulomb term is turned on
   Number of AuxJ basis functions       .... 6551

Relativistic Settings:
 Scalar relativistic method             .... ZORA
 Speed of light used       Velit        ....       137.035989
Orbital energies will be scaled


General Settings:
 Integral files         IntName         .... Ru-arylbpy_3_SOC-M06L_def2SVP
 Hartree-Fock type      HFTyp           .... RHF
 Total Charge           Charge          ....    2
 Multiplicity           Mult            ....    1
 Number of Electrons    NEL             ....  576
 Basis Dimension        Dim             .... 1469
 Nuclear Repulsion      ENuc            ....  13988.3852306755 Eh

Convergence Acceleration:
 DIIS                   CNVDIIS         .... on
   Start iteration      DIISMaxIt       ....    12
   Startup error        DIISStart       ....  0.200000
   # of expansion vecs  DIISMaxEq       ....     5
   Bias factor          DIISBfac        ....   1.050
   Max. coefficient     DIISMaxC        ....  10.000
 Trust-Rad. Augm. Hess. CNVTRAH         .... auto
   Auto Start mean grad. ratio tolernc. ....  1.125000
   Auto Start start iteration           ....    20
   Auto Start num. interpolation iter.  ....    10
   Max. Number of Micro iterations      ....    16
   Max. Number of Macro iterations      .... Maxiter - #DIIS iter
   Number of Davidson start vectors     ....     2
   Converg. threshold I  (grad. norm)   ....   5.000e-05
   Converg. threshold II (energy diff.) ....   1.000e-06
   Grad. Scal. Fac. for Micro threshold ....   0.100
   Minimum threshold for Micro iter.    ....   0.010
   NR start threshold (gradient norm)   ....   0.001
   Initial trust radius                 ....   0.400
   Minimum AH scaling param. (alpha)    ....   1.000
   Maximum AH scaling param. (alpha)    .... 1000.000
   Orbital update algorithm             .... Taylor
   White noise on init. David. guess    .... on
   Maximum white noise                  ....   0.010
   Quad. conv. algorithm                .... NR
 SOSCF                  CNVSOSCF        .... off
 Level Shifting         CNVShift        .... on
   Level shift para.    LevelShift      ....    0.2500
   Turn off err/grad.   ShiftErr        ....    0.0010
 Zerner damping         CNVZerner       .... off
 Static damping         CNVDamp         .... on
   Fraction old density DampFac         ....    0.7000
   Max. Damping (<1)    DampMax         ....    0.9800
   Min. Damping (>=0)   DampMin         ....    0.0000
   Turn off err/grad.   DampErr         ....    0.1000
 Fernandez-Rico         CNVRico         .... off

SCF Procedure:
 Maximum # iterations   MaxIter         ....   125
 SCF integral mode      SCFMode         .... Direct
   Integral package                     .... SHARK and LIBINT hybrid scheme
 Reset frequency        DirectResetFreq ....    20
 Integral Threshold     Thresh          ....  1.000e-10 Eh
 Primitive CutOff       TCut            ....  1.000e-11 Eh

Convergence Tolerance:
 Convergence Check Mode ConvCheckMode   .... Total+1el-Energy
 Convergence forced     ConvForced      .... 1
 Energy Change          TolE            ....  1.000e-06 Eh
 1-El. energy change                    ....  1.000e-03 Eh
 DIIS Error             TolErr          ....  1.000e-06


Diagonalization of the overlap matrix:
Smallest eigenvalue                        ... 2.852e-04
Time for diagonalization                   ...    0.486 sec
Threshold for overlap eigenvalues          ... 1.000e-08
Number of eigenvalues below threshold      ... 0
Time for construction of square roots      ...    0.271 sec
Total time needed                          ...    0.763 sec

Time for model grid setup =    1.947 sec

------------------------------
INITIAL GUESS: MODEL POTENTIAL
------------------------------
Loading ZORA relativistic densities                ... done
Calculating cut-offs                               ... done
Initializing the effective Hamiltonian             ... done
Setting up the integral package (SHARK)            ... done
Starting the Coulomb interaction                   ... done (   1.9 sec)
Reading the grid                                   ... done
Mapping shells                                     ... done
Starting the XC term evaluation                    ... done (   0.4 sec)
  promolecular density results
     # of electrons  =    577.968683202
     EX              =   -560.785473355
     EC              =    -20.233056039
     EX+EC           =   -581.018529394
Transforming the Hamiltonian                       ... done (   0.1 sec)
Diagonalizing the Hamiltonian                      ... done (   0.3 sec)
Back transforming the eigenvectors                 ... done (   0.1 sec)
Now organizing SCF variables                       ... done
                      ------------------
                      INITIAL GUESS DONE (   4.8 sec)
                      ------------------
-------------------
DFT GRID GENERATION
-------------------

General Integration Accuracy     IntAcc      ... 4.959
Radial Grid Type                 RadialGrid  ... OptM3 with GC (2021)
Angular Grid (max. ang.)         AngularGrid ... 6 (Lebedev-590)
Angular grid pruning method      GridPruning ... 4 (adaptive)
Weight generation scheme         WeightScheme... Becke
Basis function cutoff            BFCut       ... 1.0000e-10
Integration weight cutoff        WCut        ... 1.0000e-14
Angular grids for H and He will be reduced by one unit
Partially contracted basis set               ... off
Rotationally invariant grid construction     ... off

Total number of grid points                  ...  1654132
Total number of batches                      ...    25918
Average number of points per batch           ...       63
Average number of grid points per atom       ...    11900
Time for grid setup =   25.598 sec


--------------------
CPCM SOLVATION MODEL
--------------------
CPCM parameters:
  Epsilon                                         ...      35.6880
  Refrac                                          ...       1.3442
  Rsolv                                           ...       1.3000
  Surface type                                    ... GAUSSIAN VDW
  Epsilon function type                           ...         CPCM
Solvent:                                     ... ACETONITRILE
[...]
   0  85   23048.3    433.9      0.11007 (  0.01021,  0.00023) (  0.00144,  0.00003) (  0.00227,  0.00005)
   0  86   23058.4    433.7     -0.89257 (  0.00307, -0.01627) ( -0.00149,  0.00790) ( -0.00022,  0.00119)
   0  87   23364.4    428.0     38.35021 (  0.05305, -0.03605) (  0.02108, -0.01432) (  0.01214, -0.00825)
   0  88   23402.3    427.3     31.43189 ( -0.00392,  0.02254) (  0.00979, -0.05629) ( -0.00340,  0.01957)
   0  89   23545.0    424.7     20.52384 (  0.02809,  0.06041) ( -0.04757, -0.10232) ( -0.01199, -0.02579)
   0  90   23571.7    424.2      9.78748 (  0.08906, -0.01363) (  0.04940, -0.00756) (  0.02785, -0.00426)
   0  91   23612.8    423.5    -11.70568 ( -0.00267, -0.00147) ( -0.01442, -0.00793) (  0.04173,  0.02294)
   0  92   23633.0    423.1     -0.47769 ( -0.00021, -0.00268) (  0.00056,  0.00705) ( -0.00102, -0.01274)
   0  93   23718.4    421.6    -114.22121 ( -0.00141, -0.00298) (  0.01113,  0.02349) (  0.07351,  0.15516)
   0  94   23747.9    421.1     -0.87861 (  0.00333,  0.00365) (  0.03113,  0.03413) ( -0.02629, -0.02882)
   0  95   23760.1    420.9     10.28745 (  0.02591, -0.06641) ( -0.01117,  0.02864) (  0.01964, -0.05035)
   0  96   23763.2    420.8     -1.79986 (  0.02642, -0.00866) ( -0.01708,  0.00560) ( -0.03347,  0.01097)
   0  97   23772.7    420.7     -1.87578 (  0.00046,  0.00297) (  0.00033,  0.00215) (  0.00336,  0.02167)
   0  98   23799.3    420.2      2.21177 (  0.00975, -0.02351) (  0.01961, -0.04730) ( -0.01482,  0.03573)
   0  99   23806.0    420.1      1.90759 (  0.01136,  0.01083) ( -0.01835, -0.01749) (  0.00881,  0.00840)
   0 100   23817.4    419.9     15.06938 (  0.01095,  0.02609) ( -0.03211, -0.07655) (  0.01644,  0.03918)
   0 101   23829.7    419.6     28.29097 ( -0.08341,  0.02487) ( -0.05054,  0.01507) (  0.01059, -0.00316)
   0 102   23998.0    416.7      1.60527 ( -0.00092, -0.00358) (  0.00340,  0.01318) ( -0.00253, -0.00980)
   0 103   24007.1    416.5      2.39010 (  0.01365, -0.00228) (  0.00933, -0.00156) (  0.00208, -0.00035)
   0 104   24039.7    416.0      2.46707 (  0.01439,  0.00215) (  0.00814,  0.00121) (  0.00346,  0.00052)
   0 105   24054.2    415.7      2.25983 ( -0.00330, -0.00424) (  0.01093,  0.01402) ( -0.00111, -0.00142)
   0 106   24066.7    415.5     -0.09301 ( -0.00070,  0.00054) ( -0.00180,  0.00140) (  0.00214, -0.00166)
   0 107   24071.4    415.4      1.23538 ( -0.00004, -0.00287) (  0.00011,  0.00836) ( -0.00006, -0.00436)
   0 108   24075.0    415.4      1.32795 (  0.00594,  0.00003) (  0.00655,  0.00003) (  0.00117,  0.00001)
   0 109   24228.9    412.7      0.00547 ( -0.00005,  0.00047) (  0.00004, -0.00034) (  0.00005, -0.00046)
   0 110   24229.6    412.7      0.00323 ( -0.00047, -0.00011) (  0.00039,  0.00009) ( -0.00028, -0.00007)
   0 111   24347.0    410.7      0.01525 ( -0.00081,  0.00108) ( -0.00028,  0.00037) (  0.00094, -0.00124)
   0 112   24352.0    410.6     -0.01610 ( -0.00003, -0.00167) (  0.00004,  0.00229) (  0.00001,  0.00089)
   0 113   24352.2    410.6     -0.03346 (  0.00295,  0.00000) (  0.00125,  0.00000) ( -0.00007, -0.00000)
   0 114   24429.6    409.3      0.00783 ( -0.00031,  0.00047) (  0.00087, -0.00134) ( -0.00038,  0.00059)
   0 115   24465.4    408.7     -0.33310 (  0.00732,  0.00116) ( -0.00570, -0.00091) ( -0.00213, -0.00034)
   0 116   24465.6    408.7     -0.34249 ( -0.00162,  0.00661) ( -0.00167,  0.00680) (  0.00043, -0.00175)
   0 117   24525.8    407.7      4.70790 ( -0.00488, -0.00138) ( -0.00279, -0.00079) (  0.07214,  0.02038)
   0 118   24760.4    403.9      8.11017 ( -0.00912, -0.01869) ( -0.03458, -0.07084) (  0.00035,  0.00071)
   0 119   24774.7    403.6      5.26029 ( -0.02471,  0.05632) (  0.00831, -0.01894) ( -0.00391,  0.00890)
   0 120   24788.8    403.4     -0.01986 ( -0.00001,  0.00008) ( -0.00021,  0.00257) ( -0.00038,  0.00464)
   0 121   24789.1    403.4     -0.06223 (  0.00423, -0.00674) (  0.00351, -0.00560) (  0.00339, -0.00540)
   0 122   24792.4    403.3      1.28609 ( -0.00130,  0.02227) (  0.00119, -0.02043) ( -0.00021,  0.00361)
   0 123   24818.3    402.9     -0.05394 (  0.00151,  0.00001) (  0.00117,  0.00000) ( -0.00614, -0.00002)
   0 124   24818.8    402.9     -0.08337 ( -0.00426,  0.00056) (  0.00606, -0.00080) ( -0.00350,  0.00047)
   0 125   24819.8    402.9      0.09764 (  0.00872,  0.00177) (  0.00613,  0.00124) ( -0.00039, -0.00008)
   0 126   24934.2    401.1     -0.46520 (  0.00725,  0.00234) ( -0.00464, -0.00150) ( -0.00783, -0.00253)
   0 127   24948.2    400.8     -2.51932 (  0.00671, -0.01016) (  0.00578, -0.00875) ( -0.00605,  0.00916)
   0 128   25111.2    398.2      0.35212 (  0.00322,  0.00011) ( -0.00173, -0.00006) (  0.01129,  0.00038)
   0 129   25386.4    393.9     -0.00463 (  0.00022,  0.00019) ( -0.00071, -0.00061) ( -0.00071, -0.00061)
   0 130   25386.8    393.9      0.03581 (  0.00002,  0.00071) ( -0.00001, -0.00035) (  0.00013,  0.00394)
   0 131   25387.7    393.9      0.00989 (  0.00013,  0.00028) ( -0.00051, -0.00110) (  0.00011,  0.00023)
   0 132   25416.9    393.4      0.48425 (  0.00023, -0.00019) ( -0.00070,  0.00056) ( -0.01136,  0.00923)
   0 133   25420.2    393.4      0.00037 (  0.00005, -0.00069) ( -0.00003,  0.00036) (  0.00005, -0.00068)
   0 134   25421.8    393.4      0.00178 (  0.00402, -0.00317) ( -0.00026,  0.00021) (  0.00146, -0.00115)
   0 135   25442.7    393.0      0.00334 ( -0.00066, -0.00080) ( -0.00292, -0.00353) ( -0.00148, -0.00178)
   0 136   25445.5    393.0      0.07551 (  0.00017, -0.00011) ( -0.00007,  0.00004) ( -0.00495,  0.00330)
   0 137   25445.9    393.0     -0.01180 ( -0.00010, -0.00029) ( -0.00050, -0.00141) (  0.00015,  0.00042)
   0 138   25502.0    392.1     24.97852 ( -0.00107, -0.00620) ( -0.00075, -0.00437) ( -0.01888, -0.10937)
   0 139   25604.8    390.6      1.44091 (  0.00012, -0.00006) (  0.00135, -0.00065) (  0.02153, -0.01029)
   0 140   25605.7    390.5      0.00243 ( -0.00001, -0.00002) (  0.00045,  0.00065) (  0.00032,  0.00047)
   0 141   25605.8    390.5      0.14199 (  0.00035, -0.00024) ( -0.00044,  0.00031) ( -0.00620,  0.00438)
   0 142   25736.0    388.6     -0.25505 (  0.00574, -0.00721) (  0.00620, -0.00780) ( -0.00153,  0.00193)
   0 143   25953.1    385.3      0.05055 ( -0.00369, -0.00196) ( -0.00343, -0.00182) ( -0.00063, -0.00034)
   0 144   25957.0    385.3     -0.00298 (  0.00077, -0.00035) (  0.00072, -0.00033) (  0.00010, -0.00005)
   0 145   25957.4    385.2     -0.01724 ( -0.00103, -0.00098) (  0.00032,  0.00030) ( -0.00115, -0.00110)
   0 146   25981.7    384.9     -6.43902 (  0.01608, -0.05095) ( -0.00572,  0.01813) ( -0.00364,  0.01153)
   0 147   26001.5    384.6     -4.67961 ( -0.01506,  0.03474) ( -0.00487,  0.01124) (  0.00199, -0.00460)
   0 148   26002.3    384.6     -1.05452 ( -0.01230,  0.01144) (  0.00366, -0.00341) (  0.00205, -0.00191)
   0 149   26002.8    384.6     -1.23533 ( -0.01348,  0.01425) ( -0.00182,  0.00192) (  0.00290, -0.00307)
   0 150   26006.7    384.5     -9.83652 (  0.01117, -0.01168) (  0.04213, -0.04405) (  0.00161, -0.00168)
   0 151   26127.4    382.7    -14.85654 ( -0.02868,  0.02440) (  0.00283, -0.00240) (  0.00454, -0.00386)
   0 152   26176.1    382.0    -10.82712 (  0.00403,  0.00489) (  0.01908,  0.02318) ( -0.00772, -0.00938)
   0 153   26243.0    381.1     -0.00127 ( -0.00023, -0.00071) (  0.00014,  0.00041) (  0.00006,  0.00018)
   0 154   26244.6    381.0      0.18089 ( -0.00047, -0.00017) (  0.00074,  0.00027) (  0.00610,  0.00226)
   0 155   26251.5    380.9     -0.66986 (  0.00097,  0.00090) (  0.00506,  0.00466) ( -0.00289, -0.00267)
   0 156   26258.7    380.8     -0.01527 ( -0.00037,  0.00125) ( -0.00007,  0.00025) ( -0.00046,  0.00155)
   0 157   26258.8    380.8     -0.02866 ( -0.00130,  0.00111) ( -0.00030,  0.00026) ( -0.00102,  0.00087)
   0 158   26259.8    380.8     -0.42794 ( -0.00391,  0.00498) ( -0.00004,  0.00005) (  0.00051, -0.00065)
   0 159   26306.5    380.1      0.01642 ( -0.00036,  0.00039) (  0.00078, -0.00085) ( -0.00144,  0.00156)
   0 160   26306.8    380.1      0.00863 ( -0.00167, -0.00301) (  0.00223,  0.00402) ( -0.00007, -0.00012)
   0 161   26310.1    380.1     -0.31344 (  0.00726, -0.00593) (  0.00151, -0.00123) (  0.00132, -0.00108)
   0 162   26332.2    379.8      0.07376 ( -0.00362,  0.00255) ( -0.00327,  0.00231) ( -0.00081,  0.00057)
   0 163   26332.4    379.8      0.05127 (  0.00299, -0.00152) ( -0.00062,  0.00032) ( -0.00211,  0.00108)
   0 164   26333.6    379.7      0.02680 (  0.00046, -0.00152) ( -0.00019,  0.00064) (  0.00133, -0.00435)
   0 165   26355.6    379.4     -0.57124 (  0.00002,  0.00001) (  0.01011,  0.00788) (  0.00009,  0.00007)
   0 166   26364.9    379.3      1.24864 (  0.00276, -0.00271) ( -0.00192,  0.00188) ( -0.01518,  0.01491)
   0 167   26368.3    379.2      0.05423 (  0.00110,  0.00004) (  0.00153,  0.00005) ( -0.00454, -0.00015)
   0 168   26421.9    378.5    197.28960 ( -0.00914, -0.00355) (  0.01792,  0.00697) (  0.24232,  0.09425)
   0 169   26548.6    376.7      0.87716 ( -0.00569,  0.00672) (  0.00116, -0.00137) ( -0.00448,  0.00529)
   0 170   26549.2    376.7     -0.08744 (  0.00123,  0.00095) (  0.00127,  0.00098) ( -0.00123, -0.00095)
   0 171   26555.1    376.6      0.79554 (  0.00239, -0.00159) ( -0.00078,  0.00052) ( -0.01333,  0.00890)
   0 172   26572.4    376.3     23.79984 (  0.02857, -0.05754) ( -0.00685,  0.01380) (  0.01141, -0.02298)
   0 173   26632.5    375.5     19.08016 ( -0.00666, -0.00542) ( -0.03819, -0.03109) ( -0.01130, -0.00920)
   0 174   26944.1    371.1    -55.03894 ( -0.00286, -0.01473) (  0.04730,  0.24395) ( -0.00234, -0.01208)
   0 175   26980.0    370.6    -44.26376 ( -0.19642,  0.06201) ( -0.02697,  0.00852) ( -0.00255,  0.00081)
   0 176   27001.7    370.3      0.13546 ( -0.00179, -0.00205) ( -0.00242, -0.00277) ( -0.00021, -0.00024)
   0 177   27006.9    370.3     -2.01269 ( -0.00183, -0.00211) (  0.03433,  0.03957) ( -0.00158, -0.00182)
   0 178   27009.9    370.2     -9.55460 (  0.09129, -0.03084) (  0.01258, -0.00425) (  0.00336, -0.00113)
   0 179   27040.2    369.8     -0.01754 (  0.00039, -0.00054) (  0.00013, -0.00018) ( -0.00018,  0.00025)
   0 180   27048.3    369.7     -1.89315 ( -0.00138, -0.00955) ( -0.00686, -0.04760) (  0.00039,  0.00271)
   0 181   27050.9    369.7     -5.21920 ( -0.05620,  0.04654) (  0.00446, -0.00369) ( -0.00078,  0.00064)
   0 182   27277.7    366.6     -0.04762 ( -0.00012, -0.00103) ( -0.00041, -0.00358) (  0.00020,  0.00179)
   0 183   27286.3    366.5     -0.13702 (  0.00118,  0.00317) ( -0.00300, -0.00805) (  0.00054,  0.00144)
   0 184   27286.8    366.5     -0.23686 ( -0.01244,  0.00401) ( -0.00517,  0.00167) ( -0.00002,  0.00001)
   0 185   27380.8    365.2     -0.35127 (  0.00012,  0.00102) ( -0.00178, -0.01579) ( -0.00014, -0.00126)
   0 186   27466.6    364.1     53.43241 (  0.01177,  0.00618) ( -0.00997, -0.00523) ( -0.11898, -0.06244)
   0 187   27830.7    359.3    -25.87299 ( -0.00813, -0.01079) ( -0.05674, -0.07531) (  0.01080,  0.01434)
   0 188   27877.8    358.7    -23.26892 (  0.06835, -0.05589) ( -0.00573,  0.00468) (  0.01404, -0.01148)
   0 189   28355.1    352.7     -0.00315 ( -0.00008, -0.00058) ( -0.00034, -0.00246) ( -0.00024, -0.00170)
   0 190   28355.2    352.7      0.00185 (  0.00082,  0.00028) (  0.00133,  0.00045) (  0.00088,  0.00030)
   0 191   28355.3    352.7     -0.01093 ( -0.00106,  0.00308) (  0.00108, -0.00312) (  0.00023, -0.00067)
   0 192   28385.3    352.3     -0.00398 ( -0.00064,  0.00023) (  0.00123, -0.00043) ( -0.00146,  0.00052)
   0 193   28385.4    352.3      0.00086 ( -0.00234, -0.00080) (  0.00102,  0.00035) (  0.00068,  0.00023)
   0 194   28385.4    352.3     -0.00572 (  0.00047,  0.00147) (  0.00076,  0.00237) ( -0.00001, -0.00002)
   0 195   28395.1    352.2      0.00001 (  0.00005,  0.00019) (  0.00003,  0.00011) ( -0.00020, -0.00081)
   0 196   28395.1    352.2     -0.00054 (  0.00014,  0.00050) ( -0.00069, -0.00240) (  0.00044,  0.00152)
   0 197   28395.2    352.2     -0.00763 ( -0.00377,  0.00094) ( -0.00168,  0.00042) ( -0.00034,  0.00008)
   0 198   28507.6    350.8     -0.00031 (  0.00002, -0.00006) ( -0.00008,  0.00034) ( -0.00000,  0.00002)
   0 199   28507.6    350.8      0.00043 ( -0.00037, -0.00005) ( -0.00005, -0.00001) ( -0.00130, -0.00017)
   0 200   28507.6    350.8     -0.00318 ( -0.00032,  0.00109) (  0.00023, -0.00077) (  0.00000, -0.00001)
   0 201   28518.2    350.7      0.00005 (  0.00005, -0.00078) ( -0.00004,  0.00051) ( -0.00000,  0.00006)
   0 202   28518.2    350.7     -0.00165 ( -0.00047, -0.00018) ( -0.00060, -0.00023) ( -0.00140, -0.00053)
   0 203   28518.3    350.7     -0.00261 ( -0.00006, -0.00049) (  0.00012,  0.00097) (  0.00001,  0.00006)
   0 204   28529.5    350.5     -0.00001 ( -0.00003, -0.00044) (  0.00002,  0.00027) (  0.00004,  0.00051)
   0 205   28529.5    350.5      0.00066 ( -0.00071,  0.00003) ( -0.00127,  0.00005) (  0.00180, -0.00007)
   0 206   28529.6    350.5     -0.00534 (  0.00104,  0.00024) (  0.00166,  0.00038) ( -0.00039, -0.00009)
   0 207   28555.9    350.2     -0.00012 (  0.00040,  0.00043) ( -0.00009, -0.00010) (  0.00012,  0.00013)
   0 208   28555.9    350.2      0.00026 (  0.00122, -0.00133) ( -0.00004,  0.00004) (  0.00119, -0.00130)
   0 209   28555.9    350.2     -0.00115 ( -0.00071,  0.00073) (  0.00005, -0.00005) (  0.00009, -0.00009)
   0 210   28575.6    349.9     -0.00040 ( -0.00027, -0.00005) ( -0.00104, -0.00019) ( -0.00008, -0.00001)
   0 211   28575.6    349.9     -0.00018 ( -0.00001,  0.00062) (  0.00001, -0.00085) (  0.00000, -0.00027)
   0 212   28575.7    349.9     -0.00107 ( -0.00006, -0.00017) (  0.00040,  0.00113) (  0.00019,  0.00054)
   0 213   28580.7    349.9     -0.00571 (  0.00092, -0.00070) (  0.00136, -0.00102) ( -0.00046,  0.00035)
   0 214   28580.9    349.9      0.00004 ( -0.00074,  0.00049) ( -0.00103,  0.00068) (  0.00053, -0.00035)
   0 215   28581.0    349.9      0.00045 (  0.00007, -0.00001) (  0.00057, -0.00004) ( -0.00064,  0.00005)
   0 216   28599.7    349.7     -0.09084 (  0.00232, -0.01169) (  0.00183, -0.00924) (  0.00015, -0.00076)
   0 217   28645.6    349.1     -0.01819 ( -0.00099,  0.00184) (  0.00147, -0.00273) (  0.00033, -0.00062)
   0 218   28645.7    349.1     -0.00266 ( -0.00064,  0.00065) (  0.00031, -0.00032) ( -0.00115,  0.00116)
   0 219   28646.7    349.1     -0.00561 ( -0.00090,  0.00259) ( -0.00058,  0.00166) ( -0.00024,  0.00069)
   0 220   28654.5    349.0     -0.24921 ( -0.00169, -0.00090) (  0.01408,  0.00751) (  0.00013,  0.00007)
   0 221   28654.6    349.0     -0.03821 (  0.00088,  0.00041) (  0.00585,  0.00273) ( -0.00180, -0.00084)
   0 222   28655.8    349.0     -0.04646 (  0.00250, -0.00355) ( -0.00359,  0.00512) (  0.00018, -0.00026)
   0 223   28656.3    349.0     -3.49454 ( -0.00546, -0.00825) (  0.03591,  0.05429) ( -0.00173, -0.00262)
   0 224   28677.6    348.7     -3.37485 ( -0.04097,  0.04253) ( -0.00291,  0.00302) ( -0.00756,  0.00785)
   0 225   28748.3    347.8      1.46370 (  0.00897,  0.00126) ( -0.00415, -0.00058) (  0.01574,  0.00221)
   0 226   28798.8    347.2     -0.00408 (  0.00072, -0.00025) (  0.00041, -0.00014) ( -0.00002,  0.00001)
   0 227   28798.8    347.2     -0.00132 (  0.00005,  0.00010) ( -0.00010, -0.00023) (  0.00003,  0.00007)
   0 228   28798.9    347.2     -0.00094 ( -0.00009,  0.00027) ( -0.00018,  0.00056) ( -0.00001,  0.00003)
   0 229   28898.1    346.0     -0.06074 (  0.00172, -0.00444) (  0.00468, -0.01206) (  0.00510, -0.01314)
   0 230   28908.6    345.9     -0.45410 ( -0.00129, -0.00071) (  0.00895,  0.00491) ( -0.00430, -0.00236)
   0 231   28924.8    345.7      0.08011 ( -0.00788,  0.00239) (  0.00865, -0.00263) ( -0.01428,  0.00434)
   0 232   29417.2    339.9     -1.81285 ( -0.02309, -0.02857) ( -0.01772, -0.02193) ( -0.00119, -0.00147)
   0 233   29452.0    339.5     -1.63460 ( -0.00810,  0.02886) (  0.00658, -0.02345) ( -0.00002,  0.00006)
   0 234   29618.7    337.6     -4.27377 (  0.01755, -0.00122) ( -0.00081,  0.00006) ( -0.06639,  0.00461)
   0 235   29675.3    337.0     -0.45429 ( -0.00731, -0.00010) ( -0.01185, -0.00017) (  0.00627,  0.00009)
   0 236   29724.4    336.4     -0.35654 (  0.00391,  0.00544) (  0.00422,  0.00586) ( -0.00303, -0.00421)
   0 237   29741.5    336.2     -1.47949 ( -0.01796,  0.01671) (  0.00449, -0.00418) (  0.00083, -0.00077)
   0 238   29965.6    333.7     -0.01226 ( -0.00220,  0.00079) ( -0.00219,  0.00079) (  0.00243, -0.00087)
   0 239   30006.4    333.3     -0.09416 (  0.00060, -0.00037) (  0.01306, -0.00809) ( -0.00660,  0.00409)
   0 240   30038.0    332.9     -0.39521 (  0.01613,  0.01547) ( -0.04476, -0.04292) (  0.00198,  0.00189)

*The complex numbers are printed as (real, imaginary)

The electronic components of the SOC ground state dipole moment in a.u. are:
           X                     Y                     Z
(  0.16107,  0.00000) ( -1.73799,  0.00000) ( -1.55982,  0.00000)

Total run time:     5276.654 sec

           *** ORCA-CIS/TD-DFT FINISHED WITHOUT ERROR ***

Maximum memory used throughout the entire CIS-calculation: 13204.5 MB

---------------------------
SOC CIS/TD-DFT TOTAL ENERGY
---------------------------

    E(SCF)        =  -7686.773857615 Eh
    E(SOC CIS)    =      0.067107787 Eh (SOC Root  1)
    ----------------------------- ---------
    E(tot)        =  -7686.706749827 Eh


-------------------------   --------------------
FINAL SINGLE POINT ENERGY     -7686.706749827194
-------------------------   --------------------


                            ***************************************
                            *     ORCA property calculations      *
                            ***************************************

                                    ---------------------
                                    Active property flags
                                    ---------------------
   (+) Dipole Moment


------------------------------------------------------------------------------
                       ORCA ELECTRIC PROPERTIES CALCULATION
------------------------------------------------------------------------------

Dipole Moment Calculation                       ... on
Quadrupole Moment Calculation                   ... off
Polarizability Calculation                      ... off
GBWName                                         ... Ru-arylbpy_3_SOC-M06L_def2SVP.gbw
Electron density                                ... Ru-arylbpy_3_SOC-M06L_def2SVP.scfp
The origin for moment calculation is the CENTER OF MASS  = ( 0.000340, -0.003157 -0.002794)

-------------
DIPOLE MOMENT
-------------
                                X             Y             Z
Electronic contribution:      0.16121      -1.73774      -1.55980
Nuclear contribution   :     -0.19635       1.82449       1.61479
                        -----------------------------------------
Total Dipole Moment    :     -0.03513       0.08675       0.05499
                        -----------------------------------------
Magnitude (a.u.)       :      0.10855
Magnitude (Debye)      :      0.27592



--------------------
Rotational spectrum 
--------------------
 
Rotational constants in cm-1:     0.000607     0.000594     0.000479 
Rotational constants in MHz :    18.209601    17.805810    14.353698 

 Dipole components along the rotational axes: 
x,y,z [a.u.] :     0.035462     0.086590     0.055034 
x,y,z [Debye]:     0.090136     0.220093     0.139885 

 

Timings for individual modules:

Sum of individual times         ...     5666.716 sec (=  94.445 min)
GTO integral calculation        ...        7.397 sec (=   0.123 min)   0.1 %
Relativistic integrals          ...       41.723 sec (=   0.695 min)   0.7 %
SCF iterations                  ...      337.694 sec (=   5.628 min)   6.0 %
CIS module                      ...     5279.901 sec (=  87.998 min)  93.2 %
                             ****ORCA TERMINATED NORMALLY****
TOTAL RUN TIME: 0 days 1 hours 34 minutes 31 seconds 611 msec
