
                                 *****************
                                 * O   R   C   A *
                                 *****************

                                            #,                                       
                                            ###                                      
                                            ####                                     
                                            #####                                    
                                            ######                                   
                                           ########,                                 
                                     ,,################,,,,,                         
                               ,,#################################,,                 
                          ,,##########################################,,             
                       ,#########################################, ''#####,          
                    ,#############################################,,   '####,        
                  ,##################################################,,,,####,       
                ,###########''''           ''''###############################       
              ,#####''   ,,,,##########,,,,          '''####'''          '####       
            ,##' ,,,,###########################,,,                        '##       
           ' ,,###''''                  '''############,,,                           
         ,,##''                                '''############,,,,        ,,,,,,###''
      ,#''                                            '''#######################'''  
     '                                                          ''''####''''         
             ,#######,   #######,   ,#######,      ##                                
            ,#'     '#,  ##    ##  ,#'     '#,    #''#        ######   ,####,        
            ##       ##  ##   ,#'  ##            #'  '#       #        #'  '#        
            ##       ##  #######   ##           ,######,      #####,   #    #        
            '#,     ,#'  ##    ##  '#,     ,#' ,#      #,         ##   #,  ,#        
             '#######'   ##     ##  '#######'  #'      '#     #####' # '####'        



                  #######################################################
                  #                        -***-                        #
                  #          Department of theory and spectroscopy      #
                  #    Directorship and core code : Frank Neese         #
                  #        Max Planck Institute fuer Kohlenforschung    #
                  #                Kaiser Wilhelm Platz 1               #
                  #                 D-45470 Muelheim/Ruhr               #
                  #                      Germany                        #
                  #                                                     #
                  #                  All rights reserved                #
                  #                        -***-                        #
                  #######################################################


                         Program Version 5.0.4 -  RELEASE  -


 With contributions from (in alphabetic order):
   Daniel Aravena         : Magnetic Suceptibility
   Michael Atanasov       : Ab Initio Ligand Field Theory (pilot matlab implementation)
   Alexander A. Auer      : GIAO ZORA, VPT2 properties, NMR spectrum
   Ute Becker             : Parallelization
   Giovanni Bistoni       : ED, misc. LED, open-shell LED, HFLD
   Martin Brehm           : Molecular dynamics
   Dmytro Bykov           : SCF Hessian
   Vijay G. Chilkuri      : MRCI spin determinant printing, contributions to CSF-ICE
   Dipayan Datta          : RHF DLPNO-CCSD density
   Achintya Kumar Dutta   : EOM-CC, STEOM-CC
   Dmitry Ganyushin       : Spin-Orbit,Spin-Spin,Magnetic field MRCI
   Miquel Garcia          : C-PCM and meta-GGA Hessian, CC/C-PCM, Gaussian charge scheme
   Yang Guo               : DLPNO-NEVPT2, F12-NEVPT2, CIM, IAO-localization
   Andreas Hansen         : Spin unrestricted coupled pair/coupled cluster methods
   Benjamin Helmich-Paris : MC-RPA, TRAH-SCF, COSX integrals
   Lee Huntington         : MR-EOM, pCC
   Robert Izsak           : Overlap fitted RIJCOSX, COSX-SCS-MP3, EOM
   Marcus Kettner         : VPT2
   Christian Kollmar      : KDIIS, OOCD, Brueckner-CCSD(T), CCSD density, CASPT2, CASPT2-K
   Simone Kossmann        : Meta GGA functionals, TD-DFT gradient, OOMP2, MP2 Hessian
   Martin Krupicka        : Initial AUTO-CI
   Lucas Lang             : DCDCAS
   Marvin Lechner         : AUTO-CI (C++ implementation), FIC-MRCC
   Dagmar Lenk            : GEPOL surface, SMD
   Dimitrios Liakos       : Extrapolation schemes; Compound Job, initial MDCI parallelization
   Dimitrios Manganas     : Further ROCIS development; embedding schemes
   Dimitrios Pantazis     : SARC Basis sets
   Anastasios Papadopoulos: AUTO-CI, single reference methods and gradients
   Taras Petrenko         : DFT Hessian,TD-DFT gradient, ASA, ECA, R-Raman, ABS, FL, XAS/XES, NRVS
   Peter Pinski           : DLPNO-MP2, DLPNO-MP2 Gradient
   Christoph Reimann      : Effective Core Potentials
   Marius Retegan         : Local ZFS, SOC
   Christoph Riplinger    : Optimizer, TS searches, QM/MM, DLPNO-CCSD(T), (RO)-DLPNO pert. Triples
   Tobias Risthaus        : Range-separated hybrids, TD-DFT gradient, RPA, STAB
   Michael Roemelt        : Original ROCIS implementation
   Masaaki Saitow         : Open-shell DLPNO-CCSD energy and density
   Barbara Sandhoefer     : DKH picture change effects
   Avijit Sen             : IP-ROCIS
   Kantharuban Sivalingam : CASSCF convergence, NEVPT2, FIC-MRCI
   Bernardo de Souza      : ESD, SOC TD-DFT
   Georgi Stoychev        : AutoAux, RI-MP2 NMR, DLPNO-MP2 response
   Willem Van den Heuvel  : Paramagnetic NMR
   Boris Wezisla          : Elementary symmetry handling
   Frank Wennmohs         : Technical directorship


 We gratefully acknowledge several colleagues who have allowed us to
 interface, adapt or use parts of their codes:
   Stefan Grimme, W. Hujo, H. Kruse, P. Pracht,  : VdW corrections, initial TS optimization,
                  C. Bannwarth, S. Ehlert          DFT functionals, gCP, sTDA/sTD-DF
   Ed Valeev, F. Pavosevic, A. Kumar             : LibInt (2-el integral package), F12 methods
   Garnet Chan, S. Sharma, J. Yang, R. Olivares  : DMRG
   Ulf Ekstrom                                   : XCFun DFT Library
   Mihaly Kallay                                 : mrcc  (arbitrary order and MRCC methods)
   Jiri Pittner, Ondrej Demel                    : Mk-CCSD
   Frank Weinhold                                : gennbo (NPA and NBO analysis)
   Christopher J. Cramer and Donald G. Truhlar   : smd solvation model
   Lars Goerigk                                  : TD-DFT with DH, B97 family of functionals
   V. Asgeirsson, H. Jonsson                     : NEB implementation
   FAccTs GmbH                                   : IRC, NEB, NEB-TS, DLPNO-Multilevel, CI-OPT
                                                   MM, QMMM, 2- and 3-layer-ONIOM, Crystal-QMMM,
                                                   LR-CPCM, SF, NACMEs, symmetry and pop. for TD-DFT,
                                                   nearIR, NL-DFT gradient (VV10), updates on ESD,
                                                   ML-optimized integration grids
   S Lehtola, MJT Oliveira, MAL Marques          : LibXC Library
   Liviu Ungur et al                             : ANISO software


 Your calculation uses the libint2 library for the computation of 2-el integrals
 For citations please refer to: http://libint.valeyev.net

 Your ORCA version has been built with support for libXC version: 5.1.0
 For citations please refer to: https://tddft.org/programs/libxc/

 This ORCA versions uses:
   CBLAS   interface :  Fast vector & matrix operations
   LAPACKE interface :  Fast linear algebra routines
   SCALAPACK package :  Parallel linear algebra routines
   Shared memory     :  Shared parallel matrices
   BLAS/LAPACK       :  OpenBLAS 0.3.15  USE64BITINT DYNAMIC_ARCH NO_AFFINITY Zen SINGLE_THREADED
        Core in use  :  Zen
   Copyright (c) 2011-2014, The OpenBLAS Project


Your calculation utilizes the SMD solvation module
Please cite in your paper:
A.V. Marenich, C.J. Cramer, D.G. Truhlar J. Phys. Chem. B, 113, (2009), 6378 

XCFun DFT library Copyright 2009-2010 Ulf Ekstrom and contributors.
See http://admol.org/xcfun for more information.
This is free software; see the source code for copying conditions.
There is ABSOLUTELY NO WARRANTY; not even for MERCHANTABILITY or FITNESS FOR A PARTICULAR PURPOSE.
For details see the documentation.
Scientific users of this library should cite U. Ekstrom, L. Visscher, R. Bast, A. J. Thorvaldsen and K. Ruud;
J.Chem.Theor.Comp. 2010, DOI: 10.1021/ct100117s
XCFun Version 0.99 

================================================================================

----- Orbital basis set information -----
Your calculation utilizes the basis: ZORA-def2-SVP 
   Exponents from def2-SVP [F. Weigend and R. Ahlrichs, Phys. Chem. Chem. Phys. 7, 3297 (2005)],
   recontracted for ZORA by D. A. Pantazis.

The basis set includes element-specific modifications.

Your calculation utilizes the basis: SARC-ZORA-TZVP 
   Rb-Xe:  J. D. Rolfes, F. Neese and D. A. Pantazis, J. Comput. Chem. 41, 1842 (2020).
   La-Lu:  D. A. Pantazis and F. Neese, J. Chem. Theory Comput. 5, 2229 (2009).
   Hf-Hg:  D. A. Pantazis, X. Y. Chen, C. R. Landis and F. Neese, J. Chem. Theory Comput. 4, 908 (2008).
   Tl-Rn:  D. A. Pantazis and F. Neese, Theor. Chem. Acc. 131, 1292 (2012).
   Ac-Lr:  D. A. Pantazis and F. Neese, J. Chem. Theory Comput. 7, 677 (2011).

----- AuxJ basis set information -----
Your calculation utilizes the auxiliary basis: SARC/J 
   decontracted def2/J up to Kr:
   F. Weigend, Phys. Chem. Chem. Phys. 8, 1057 (2006)
   and SARC auxiliary basis sets beyond Kr:
   D. A. Pantazis and F. Neese, J. Chem. Theory Comput. 5, 2229 (2009).
   D. A. Pantazis, X. Y. Chen, C. R. Landis and F. Neese, J. Chem. Theory Comput. 4, 908 (2008).
   D. A. Pantazis and F. Neese, Theor. Chem. Acc. 131, 1292 (2012).
   D. A. Pantazis and F. Neese, J. Chem. Theory Comput. 7, 677 (2011).

================================================================================
                                        WARNINGS
                       Please study these warnings very carefully!
================================================================================

INFO   : Checking CIS options ...

INFO   : Since TDDFT/CIS Mode == RPA_AOINTS, the TAMMDANCOFF/TDA keyword is ignored. 


WARNING: (CIS/TDDFT): Spin-orbit needs TRIPLETS set to TRUE
  ===> : ajusting flags

WARNING: CIS/ROCIS methods need fully converged wavefunctions
  ===> : Setting SCFConvForced true
         You can overwrite this default with %scf ConvForced false 


INFO   : the flag for use of the SHARK integral package has been found!

================================================================================
                                       INPUT FILE
================================================================================
NAME = Ru-arylbpy_3_SOC-M06_def2SVP.inp
|  1> %maxcore 12000
|  2> %pal
|  3>  nprocs 8
|  4> end
|  5> ! M06 ZORA ZORA-DEF2-SVP SARC/J CPCM RI-SOMF(1X) DEFGRID3
|  6> 
|  7> %TDDFT 
|  8>     NROOTS    50
|  9>     TDA       FALSE
| 10>     DOSOC     TRUE
| 11> END
| 12> 
| 13> %CPCM
| 14>     SMD		TRUE
| 15>     SMDsolvent	"Acetonitrile"
| 16> END
| 17> 
| 18> %BASIS
| 19>     NEWGTO  RU      "SARC-ZORA-TZVP" END
| 20>     NEWGTO  IR      "SARC-ZORA-TZVP" END
| 21> END
| 22> 
| 23> * xyz 2 1
| 24> C                  -1.98870100   -2.02999600   -0.63033000
| 25> C                  -2.13336400   -0.26299800   -2.12546400
| 26> C                  -3.17394900   -0.86750300   -2.80933800
| 27> C                  -3.02886700   -2.68984500   -1.27692400
| 28> C                  -1.28676000   -2.56727400    0.54700200
| 29> C                   0.41448300   -2.21620800    2.08364200
| 30> C                   0.14018400   -3.41021800    2.72795900
| 31> C                  -1.61431300   -3.77520100    1.15394400
| 32> H                  -1.74457800    0.70710400   -2.45139300
| 33> H                  -3.59150400   -0.36378200   -3.68406100
| 34> H                  -3.37216100   -3.65315100   -0.89435000
| 35> H                   1.21684300   -1.56282800    2.44148800
| 36> H                   0.73352200   -3.68239400    3.60372000
| 37> H                  -2.42310200   -4.38101900    0.74041900
| 38> C                  -0.76024500    2.76373000   -0.53439800
| 39> C                   0.86257000    2.08943400   -2.04753900
| 40> C                   0.83598200    3.31451000   -2.69125100
| 41> C                  -0.83180700    4.01523000   -1.13705700
| 42> C                  -1.57858100    2.36816500    0.62360500
| 43> C                  -2.06157800    0.67290500    2.13108400
| 44> C                  -2.98676100    1.46257500    2.79171900
| 45> C                  -2.49820000    3.20945100    1.24172100
| 46> H                   1.52607400    1.29259800   -2.39906300
| 47> H                   1.48021800    3.46440400   -3.56039200
| 48> H                  -1.50775800    4.76904000   -0.72894500
| 49> H                  -1.86820100   -0.35297600    2.46141200
| 50> H                  -3.53114700    1.03828600    3.63828700
| 51> H                  -2.62999600    4.22712700    0.86817000
| 52> C                   2.89200600    0.14883500    0.61983700
| 53> C                   1.68589000    1.38019700    2.17109800
| 54> C                   2.83768800    1.73898900    2.85010900
| 55> C                   4.08421300    0.47229900    1.25927200
| 56> C                   2.81348800   -0.70137600   -0.57923600
| 57> C                   1.40149000   -1.68389600   -2.13479600
| 58> C                   2.46706400   -2.25165800   -2.81185600
| 59> C                   3.92566100   -1.24240400   -1.21654300
| 60> H                   0.70715500    1.73332400    2.51177700
| 61> H                   5.02359700    0.06890000    0.87612400
| 62> H                   0.37638500   -1.83542000   -2.48816900
| 63> H                   4.92170300   -1.05841500   -0.80827600
| 64> N                   1.69841400    0.59956000    1.08093100
| 65> N                  -0.27944400   -1.78992100    1.01804100
| 66> N                  -1.36529300    1.10510000    1.06962500
| 67> N                  -1.54237000   -0.82337700   -1.05988800
| 68> N                   0.08392300    1.80571700   -0.99311000
| 69> N                   1.55768000   -0.92034400   -1.04342100
| 70> Ru                  0.02884200   -0.00431400    0.01271700
| 71> H                   2.75087100    2.39572900    3.71867300
| 72> H                   2.26576900   -2.84219800   -3.70856200
| 73> C                  -0.90258000   -4.22971200    2.27069800
| 74> C                  -3.65217100   -2.11860200   -2.39283100
| 75> C                  -0.02891600    4.32335500   -2.24203200
| 76> C                  -3.23206200    2.77145300    2.35085800
| 77> C                   4.08604200    1.28289500    2.40109100
| 78> C                   3.77726200   -2.03686500   -2.35979400
| 79> C                   5.33918100    1.63871500    3.09146600
| 80> C                   5.35247400    1.91935800    4.46709900
| 81> C                   6.55491900    1.70687600    2.39490600
| 82> C                   6.53535500    2.25131400    5.11543200
| 83> H                   4.42744300    1.85089200    5.04799900
| 84> C                   7.73387900    2.04804200    3.04780300
| 85> C                   7.74912100    2.32822700    4.41943900
| 86> H                   6.52286400    2.45106100    6.19250700
| 87> H                   8.66877700    2.10288100    2.47962700
| 88> C                   4.94249600   -2.61526500   -3.05300700
| 89> C                   4.83697600   -3.82729800   -3.75174200
| 90> C                   6.19019100   -1.97283000   -3.03251500
| 91> C                   5.93826300   -4.37487100   -4.39978200
| 92> H                   3.88595800   -4.36898900   -3.76601100
| 93> C                   7.28472600   -2.52104500   -3.68976700
| 94> C                   7.18215400   -3.73173500   -4.38712600
| 95> H                   5.83509000   -5.33080700   -4.92460300
| 96> H                   8.24638800   -1.99683500   -3.66673200
| 97> C                  -4.75594300   -2.80060500   -3.09270500
| 98> C                  -5.73794400   -2.06730000   -3.77708000
| 99> C                  -4.85511300   -4.19995500   -3.10028300
|100> C                  -6.77887800   -2.71077100   -4.43474200
|101> C                  -5.89456100   -4.83810200   -3.76737500
|102> H                  -4.09149600   -4.80544500   -2.60220200
|103> C                  -6.88001700   -4.10816700   -4.44304800
|104> H                  -7.53798600   -2.11670300   -4.95523200
|105> H                  -5.94086400   -5.93248200   -3.77237200
|106> C                  -0.09409800    5.64171300   -2.89843100
|107> C                   1.01312900    6.16149700   -3.58733000
|108> C                  -1.26585300    6.41247100   -2.86055600
|109> C                   0.94856800    7.40315000   -4.20719000
|110> C                  -1.32646300    7.65081600   -3.48929700
|111> H                  -2.15754800    6.02829300   -2.35538900
|112> C                  -0.22083800    8.17390100   -4.17086100
|113> H                   1.82811400    7.79050600   -4.73297500
|114> H                  -2.25803500    8.22623800   -3.45900300
|115> C                  -4.21436600    3.64325500    3.02014300
|116> C                  -4.89291400    4.64725000    2.31320900
|117> C                  -4.49860500    3.49286300    4.38640600
|118> C                  -5.82134100    5.46373900    2.94855600
|119> C                  -5.42103400    4.31828900    5.01766500
|120> H                  -3.97004800    2.73583500    4.97410400
|121> C                  -6.10529400    5.31640200    4.31189000
|122> H                  -6.34456700    6.23528500    2.37336700
|123> H                  -5.61369400    4.19249600    6.08868900
|124> C                  -1.23445100   -5.50639700    2.92887100
|125> C                  -0.25833400   -6.23351500    3.62717500
|126> C                  -2.53561400   -6.03006200    2.88050300
|127> C                  -0.57205000   -7.43846900    4.24440800
|128> C                  -2.84501400   -7.23128000    3.50714800
|129> H                  -3.32911100   -5.47683800    2.36848100
|130> C                  -1.86976700   -7.96309500    4.19655900
|131> H                   0.20924700   -7.99167000    4.77687900
|132> H                  -3.87175800   -7.61117800    3.46885100
|133> H                   0.77060100   -5.86383300    3.67313300
|134> H                  -5.70179800   -0.97348500   -3.77830300
|135> H                  -4.71162000    4.78032700    1.24216500
|136> H                   1.94996200    5.59678500   -3.62292400
|137> H                   6.30442800   -1.01564800   -2.51409400
|138> H                   6.58061300    1.51260400    1.31821400
|139> C                   8.35728200   -4.30275500   -5.11323100
|140> H                   9.30324400   -4.07217600   -4.59881500
|141> H                   8.27535600   -5.39483100   -5.22437000
|142> H                   8.43571900   -3.87957800   -6.13029600
|143> C                   9.01082400    2.71942800    5.11885900
|144> H                   9.07889800    3.81653100    5.22473500
|145> H                   9.05559300    2.30045400    6.13653300
|146> H                   9.90299700    2.39027900    4.56482200
|147> C                  -2.19682000   -9.27239100    4.83897800
|148> H                  -2.04979600  -10.10638500    4.13007300
|149> H                  -1.54966700   -9.47180800    5.70703800
|150> H                  -3.24706700   -9.31274500    5.16697300
|151> C                  -8.01639000   -4.79170500   -5.13253200
|152> H                  -8.90721800   -4.82999000   -4.48097300
|153> H                  -8.31551800   -4.25677300   -6.04758300
|154> H                  -7.76559500   -5.82977600   -5.39895600
|155> C                  -7.12284900    6.17735300    4.98812000
|156> H                  -8.11362200    5.68947000    4.98897300
|157> H                  -6.85983700    6.36500900    6.04083500
|158> H                  -7.24066500    7.14541700    4.47753600
|159> C                  -0.27483900    9.51922300   -4.81969700
|160> H                   0.13211700   10.29685400   -4.14942200
|161> H                   0.32649400    9.54853000   -5.74188000
|162> H                  -1.30742200    9.81137000   -5.06458600
|163> *
|164> 
|165>                          ****END OF INPUT****
================================================================================

                       ****************************
                       * Single Point Calculation *
                       ****************************

---------------------------------
CARTESIAN COORDINATES (ANGSTROEM)
---------------------------------
  C     -1.988701   -2.029996   -0.630330
  C     -2.133364   -0.262998   -2.125464
  C     -3.173949   -0.867503   -2.809338
  C     -3.028867   -2.689845   -1.276924
  C     -1.286760   -2.567274    0.547002
  C      0.414483   -2.216208    2.083642
  C      0.140184   -3.410218    2.727959
  C     -1.614313   -3.775201    1.153944
  H     -1.744578    0.707104   -2.451393
  H     -3.591504   -0.363782   -3.684061
  H     -3.372161   -3.653151   -0.894350
  H      1.216843   -1.562828    2.441488
  H      0.733522   -3.682394    3.603720
  H     -2.423102   -4.381019    0.740419
  C     -0.760245    2.763730   -0.534398
  C      0.862570    2.089434   -2.047539
  C      0.835982    3.314510   -2.691251
  C     -0.831807    4.015230   -1.137057
  C     -1.578581    2.368165    0.623605
  C     -2.061578    0.672905    2.131084
  C     -2.986761    1.462575    2.791719
  C     -2.498200    3.209451    1.241721
  H      1.526074    1.292598   -2.399063
  H      1.480218    3.464404   -3.560392
  H     -1.507758    4.769040   -0.728945
  H     -1.868201   -0.352976    2.461412
  H     -3.531147    1.038286    3.638287
  H     -2.629996    4.227127    0.868170
  C      2.892006    0.148835    0.619837
  C      1.685890    1.380197    2.171098
  C      2.837688    1.738989    2.850109
  C      4.084213    0.472299    1.259272
  C      2.813488   -0.701376   -0.579236
  C      1.401490   -1.683896   -2.134796
  C      2.467064   -2.251658   -2.811856
  C      3.925661   -1.242404   -1.216543
  H      0.707155    1.733324    2.511777
  H      5.023597    0.068900    0.876124
  H      0.376385   -1.835420   -2.488169
  H      4.921703   -1.058415   -0.808276
  N      1.698414    0.599560    1.080931
  N     -0.279444   -1.789921    1.018041
  N     -1.365293    1.105100    1.069625
  N     -1.542370   -0.823377   -1.059888
  N      0.083923    1.805717   -0.993110
  N      1.557680   -0.920344   -1.043421
  Ru     0.028842   -0.004314    0.012717
  H      2.750871    2.395729    3.718673
  H      2.265769   -2.842198   -3.708562
  C     -0.902580   -4.229712    2.270698
  C     -3.652171   -2.118602   -2.392831
  C     -0.028916    4.323355   -2.242032
  C     -3.232062    2.771453    2.350858
  C      4.086042    1.282895    2.401091
  C      3.777262   -2.036865   -2.359794
  C      5.339181    1.638715    3.091466
  C      5.352474    1.919358    4.467099
  C      6.554919    1.706876    2.394906
  C      6.535355    2.251314    5.115432
  H      4.427443    1.850892    5.047999
  C      7.733879    2.048042    3.047803
  C      7.749121    2.328227    4.419439
  H      6.522864    2.451061    6.192507
  H      8.668777    2.102881    2.479627
  C      4.942496   -2.615265   -3.053007
  C      4.836976   -3.827298   -3.751742
  C      6.190191   -1.972830   -3.032515
  C      5.938263   -4.374871   -4.399782
  H      3.885958   -4.368989   -3.766011
  C      7.284726   -2.521045   -3.689767
  C      7.182154   -3.731735   -4.387126
  H      5.835090   -5.330807   -4.924603
  H      8.246388   -1.996835   -3.666732
  C     -4.755943   -2.800605   -3.092705
  C     -5.737944   -2.067300   -3.777080
  C     -4.855113   -4.199955   -3.100283
  C     -6.778878   -2.710771   -4.434742
  C     -5.894561   -4.838102   -3.767375
  H     -4.091496   -4.805445   -2.602202
  C     -6.880017   -4.108167   -4.443048
  H     -7.537986   -2.116703   -4.955232
  H     -5.940864   -5.932482   -3.772372
  C     -0.094098    5.641713   -2.898431
  C      1.013129    6.161497   -3.587330
  C     -1.265853    6.412471   -2.860556
  C      0.948568    7.403150   -4.207190
  C     -1.326463    7.650816   -3.489297
  H     -2.157548    6.028293   -2.355389
  C     -0.220838    8.173901   -4.170861
  H      1.828114    7.790506   -4.732975
  H     -2.258035    8.226238   -3.459003
  C     -4.214366    3.643255    3.020143
  C     -4.892914    4.647250    2.313209
  C     -4.498605    3.492863    4.386406
  C     -5.821341    5.463739    2.948556
  C     -5.421034    4.318289    5.017665
  H     -3.970048    2.735835    4.974104
  C     -6.105294    5.316402    4.311890
  H     -6.344567    6.235285    2.373367
  H     -5.613694    4.192496    6.088689
  C     -1.234451   -5.506397    2.928871
  C     -0.258334   -6.233515    3.627175
  C     -2.535614   -6.030062    2.880503
  C     -0.572050   -7.438469    4.244408
  C     -2.845014   -7.231280    3.507148
  H     -3.329111   -5.476838    2.368481
  C     -1.869767   -7.963095    4.196559
  H      0.209247   -7.991670    4.776879
  H     -3.871758   -7.611178    3.468851
  H      0.770601   -5.863833    3.673133
  H     -5.701798   -0.973485   -3.778303
  H     -4.711620    4.780327    1.242165
  H      1.949962    5.596785   -3.622924
  H      6.304428   -1.015648   -2.514094
  H      6.580613    1.512604    1.318214
  C      8.357282   -4.302755   -5.113231
  H      9.303244   -4.072176   -4.598815
  H      8.275356   -5.394831   -5.224370
  H      8.435719   -3.879578   -6.130296
  C      9.010824    2.719428    5.118859
  H      9.078898    3.816531    5.224735
  H      9.055593    2.300454    6.136533
  H      9.902997    2.390279    4.564822
  C     -2.196820   -9.272391    4.838978
  H     -2.049796  -10.106385    4.130073
  H     -1.549667   -9.471808    5.707038
  H     -3.247067   -9.312745    5.166973
  C     -8.016390   -4.791705   -5.132532
  H     -8.907218   -4.829990   -4.480973
  H     -8.315518   -4.256773   -6.047583
  H     -7.765595   -5.829776   -5.398956
  C     -7.122849    6.177353    4.988120
  H     -8.113622    5.689470    4.988973
  H     -6.859837    6.365009    6.040835
  H     -7.240665    7.145417    4.477536
  C     -0.274839    9.519223   -4.819697
  H      0.132117   10.296854   -4.149422
  H      0.326494    9.548530   -5.741880
  H     -1.307422    9.811370   -5.064586

----------------------------
CARTESIAN COORDINATES (A.U.)
----------------------------
  NO LB      ZA    FRAG     MASS         X           Y           Z
   0 C     6.0000    0    12.011   -3.758100   -3.836136   -1.191151
   1 C     6.0000    0    12.011   -4.031474   -0.496994   -4.016545
   2 C     6.0000    0    12.011   -5.997894   -1.639343   -5.308879
   3 C     6.0000    0    12.011   -5.723729   -5.083070   -2.413037
   4 C     6.0000    0    12.011   -2.431624   -4.851445    1.033684
   5 C     6.0000    0    12.011    0.783259   -4.188026    3.937513
   6 C     6.0000    0    12.011    0.264909   -6.444378    5.155095
   7 C     6.0000    0    12.011   -3.050609   -7.134096    2.180638
   8 H     1.0000    0     1.008   -3.296775    1.336233   -4.632461
   9 H     1.0000    0     1.008   -6.786959   -0.687448   -6.961866
  10 H     1.0000    0     1.008   -6.372461   -6.903455   -1.690077
  11 H     1.0000    0     1.008    2.299500   -2.953317    4.613744
  12 H     1.0000    0     1.008    1.386156   -6.958716    6.810044
  13 H     1.0000    0     1.008   -4.578999   -8.278926    1.399189
  14 C     6.0000    0    12.011   -1.436655    5.222693   -1.009866
  15 C     6.0000    0    12.011    1.630021    3.948458   -3.869288
  16 C     6.0000    0    12.011    1.579777    6.263516   -5.085727
  17 C     6.0000    0    12.011   -1.571887    7.587685   -2.148726
  18 C     6.0000    0    12.011   -2.983086    4.475183    1.178443
  19 C     6.0000    0    12.011   -3.895818    1.271606    4.027165
  20 C     6.0000    0    12.011   -5.644160    2.763866    5.275584
  21 C     6.0000    0    12.011   -4.720914    6.064983    2.346513
  22 H     1.0000    0     1.008    2.883862    2.442656   -4.533572
  23 H     1.0000    0     1.008    2.797207    6.546775   -6.728166
  24 H     1.0000    0     1.008   -2.849250    9.012180   -1.377506
  25 H     1.0000    0     1.008   -3.530388   -0.667028    4.651395
  26 H     1.0000    0     1.008   -6.672901    1.962076    6.875366
  27 H     1.0000    0     1.008   -4.969972    7.988112    1.640604
  28 C     6.0000    0    12.011    5.465099    0.281257    1.171322
  29 C     6.0000    0    12.011    3.185870    2.608194    4.102781
  30 C     6.0000    0    12.011    5.362453    3.286213    5.385925
  31 C     6.0000    0    12.011    7.718044    0.892516    2.379679
  32 C     6.0000    0    12.011    5.316722   -1.325409   -1.094597
  33 C     6.0000    0    12.011    2.648432   -3.182102   -4.034180
  34 C     6.0000    0    12.011    4.662075   -4.255017   -5.313638
  35 C     6.0000    0    12.011    7.418424   -2.347803   -2.298933
  36 H     1.0000    0     1.008    1.336329    3.275508    4.746571
  37 H     1.0000    0     1.008    9.493223    0.130202    1.655634
  38 H     1.0000    0     1.008    0.711265   -3.468441   -4.701958
  39 H     1.0000    0     1.008    9.300671   -2.000114   -1.527420
  40 N     7.0000    0    14.007    3.209537    1.133004    2.042664
  41 N     7.0000    0    14.007   -0.528073   -3.382460    1.923819
  42 N     7.0000    0    14.007   -2.580030    2.088336    2.021298
  43 N     7.0000    0    14.007   -2.914657   -1.555957   -2.002898
  44 N     7.0000    0    14.007    0.158591    3.412311   -1.876706
  45 N     7.0000    0    14.007    2.943589   -1.739198   -1.971780
  46 Ru   44.0000    0   101.070    0.054503   -0.008152    0.024032
  47 H     1.0000    0     1.008    5.198393    4.527272    7.027274
  48 H     1.0000    0     1.008    4.281683   -5.370976   -7.008167
  49 C     6.0000    0    12.011   -1.705629   -7.992997    4.290997
  50 C     6.0000    0    12.011   -6.901603   -4.003578   -4.521795
  51 C     6.0000    0    12.011   -0.054643    8.169957   -4.236826
  52 C     6.0000    0    12.011   -6.107712    5.237287    4.442478
  53 C     6.0000    0    12.011    7.721500    2.424320    4.537404
  54 C     6.0000    0    12.011    7.137991   -3.849117   -4.459364
  55 C     6.0000    0    12.011   10.089590    3.096723    5.842024
  56 C     6.0000    0    12.011   10.114710    3.627061    8.441594
  57 C     6.0000    0    12.011   12.387002    3.225528    4.525716
  58 C     6.0000    0    12.011   12.350031    4.254367    9.666766
  59 H     1.0000    0     1.008    8.366655    3.497679    9.539336
  60 C     6.0000    0    12.011   14.614913    3.870238    5.759513
  61 C     6.0000    0    12.011   14.643716    4.399711    8.351529
  62 H     1.0000    0     1.008   12.326427    4.631834   11.702142
  63 H     1.0000    0     1.008   16.381614    3.973869    4.685816
  64 C     6.0000    0    12.011    9.339964   -4.942135   -5.769347
  65 C     6.0000    0    12.011    9.140560   -7.232545   -7.089765
  66 C     6.0000    0    12.011   11.697766   -3.728108   -5.730623
  67 C     6.0000    0    12.011   11.221691   -8.267308   -8.314383
  68 H     1.0000    0     1.008    7.343396   -8.256193   -7.116729
  69 C     6.0000    0    12.011   13.766137   -4.764085   -6.972649
  70 C     6.0000    0    12.011   13.572304   -7.051957   -8.290467
  71 H     1.0000    0     1.008   11.026722  -10.073765   -9.306151
  72 H     1.0000    0     1.008   15.583415   -3.773471   -6.929119
  73 C     6.0000    0    12.011   -8.987430   -5.292376   -5.844365
  74 C     6.0000    0    12.011  -10.843143   -3.906631   -7.137647
  75 C     6.0000    0    12.011   -9.174834   -7.936765   -5.858686
  76 C     6.0000    0    12.011  -12.810223   -5.122615   -8.380448
  77 C     6.0000    0    12.011  -11.139106   -9.142688   -7.119307
  78 H     1.0000    0     1.008   -7.731807   -9.080975   -4.917449
  79 C     6.0000    0    12.011  -13.001348   -7.763311   -8.396144
  80 H     1.0000    0     1.008  -14.244729   -3.999989   -9.364031
  81 H     1.0000    0     1.008  -11.226606  -11.210766   -7.128750
  82 C     6.0000    0    12.011   -0.177819   10.661292   -5.477241
  83 C     6.0000    0    12.011    1.914536   11.643542   -6.779071
  84 C     6.0000    0    12.011   -2.392115   12.117814   -5.405667
  85 C     6.0000    0    12.011    1.792534   13.989926   -7.950437
  86 C     6.0000    0    12.011   -2.506652   14.457947   -6.593816
  87 H     1.0000    0     1.008   -4.077175   11.391823   -4.451040
  88 C     6.0000    0    12.011   -0.417323   15.446434   -7.881785
  89 H     1.0000    0     1.008    3.454635   14.721923   -8.944027
  90 H     1.0000    0     1.008   -4.267068   15.545337   -6.536568
  91 C     6.0000    0    12.011   -7.963998    6.884754    5.707243
  92 C     6.0000    0    12.011   -9.246267    8.782030    4.371332
  93 C     6.0000    0    12.011   -8.501131    6.600554    8.289106
  94 C     6.0000    0    12.011  -11.000740   10.324970    5.571963
  95 C     6.0000    0    12.011  -10.244270    8.160384    9.482013
  96 H     1.0000    0     1.008   -7.502303    5.169979    9.399694
  97 C     6.0000    0    12.011  -11.537334   10.046544    8.148291
  98 H     1.0000    0     1.008  -11.989494   11.782981    4.485014
  99 H     1.0000    0     1.008  -10.608344    7.922669   11.505955
 100 C     6.0000    0    12.011   -2.332774  -10.405582    5.534764
 101 C     6.0000    0    12.011   -0.488181  -11.779636    6.854367
 102 C     6.0000    0    12.011   -4.791616  -11.395166    5.443362
 103 C     6.0000    0    12.011   -1.081018  -14.056669    8.020769
 104 C     6.0000    0    12.011   -5.376297  -13.665139    6.627549
 105 H     1.0000    0     1.008   -6.291108  -10.349724    4.475780
 106 C     6.0000    0    12.011   -3.533348  -15.048069    7.930347
 107 H     1.0000    0     1.008    0.395420  -15.102068    9.026993
 108 H     1.0000    0     1.008   -7.316562  -14.383042    6.555178
 109 H     1.0000    0     1.008    1.456225  -11.081038    6.941215
 110 H     1.0000    0     1.008  -10.774837   -1.839620   -7.139958
 111 H     1.0000    0     1.008   -8.903671    9.033509    2.347352
 112 H     1.0000    0     1.008    3.684894   10.576391   -6.846334
 113 H     1.0000    0     1.008   11.913642   -1.919297   -4.750949
 114 H     1.0000    0     1.008   12.435556    2.858407    2.491063
 115 C     6.0000    0    12.011   15.792974   -8.131029   -9.662606
 116 H     1.0000    0     1.008   17.580583   -7.695297   -8.690501
 117 H     1.0000    0     1.008   15.638157  -10.194753   -9.872629
 118 H     1.0000    0     1.008   15.941199   -7.331340  -11.584581
 119 C     6.0000    0    12.011   17.027990    5.138974    9.673242
 120 H     1.0000    0     1.008   17.156631    7.212198    9.873318
 121 H     1.0000    0     1.008   17.112591    4.347228   11.596367
 122 H     1.0000    0     1.008   18.713952    4.516973    8.626263
 123 C     6.0000    0    12.011   -4.151388  -17.522280    9.144343
 124 H     1.0000    0     1.008   -3.873553  -19.098300    7.804707
 125 H     1.0000    0     1.008   -2.928446  -17.899123   10.784739
 126 H     1.0000    0     1.008   -6.136067  -17.598538    9.764164
 127 C     6.0000    0    12.011  -15.148782   -9.055010   -9.699080
 128 H     1.0000    0     1.008  -16.832203   -9.127358   -8.467812
 129 H     1.0000    0     1.008  -15.714052   -8.044135  -11.428276
 130 H     1.0000    0     1.008  -14.674848  -11.016680  -10.202548
 131 C     6.0000    0    12.011  -13.460234   11.673505    9.426181
 132 H     1.0000    0     1.008  -15.332524   10.751540    9.427793
 133 H     1.0000    0     1.008  -12.963213   12.028124   11.415524
 134 H     1.0000    0     1.008  -13.682874   13.502881    8.461317
 135 C     6.0000    0    12.011   -0.519370   17.988724   -9.107907
 136 H     1.0000    0     1.008    0.249665   19.458234   -7.841271
 137 H     1.0000    0     1.008    0.616984   18.044107  -10.850581
 138 H     1.0000    0     1.008   -2.470670   18.540802   -9.570681

--------------------------------
INTERNAL COORDINATES (ANGSTROEM)
--------------------------------
 C      0   0   0     0.000000000000     0.00000000     0.00000000
 C      1   0   0     2.319188434244     0.00000000     0.00000000
 C      2   1   0     1.384170179250    91.87187629     0.00000000
 C      1   2   3     1.391197258189    90.86545280     0.12462219
 C      1   2   3     1.472243001338   145.41947825   180.04971601
 C      5   1   2     2.319210549089   145.52243217   358.25661259
 C      6   5   1     1.384212490187    91.86107652   180.34443474
 C      5   1   2     1.390955497671   123.61320876   178.41868614
 H      2   1   3     1.094752098532   147.66483068   181.08786341
 H      3   2   1     1.092349463585   118.79089979   181.28774177
 H      4   1   2     1.091866331356   119.38552670   181.16808640
 H      6   5   1     1.094870199483   147.61359185     1.27000409
 H      7   6   5     1.092285258685   118.71815871   181.09411795
 H      8   5   1     1.091859890861   119.40736012     1.01261620
 C      9   2   1     2.978840678652   122.51758646   323.73730728
 C     15   9   2     2.319008259089    67.08183919   120.52276988
 C     16  15   9     1.384154350665    91.87128375   110.21849776
 C     15   9   2     1.390888651232   108.98869062   203.14789088
 C     15   9   2     1.472112912154    97.87521685   332.87056742
 C     19  15   9     2.319414905757   145.42821064    61.52440695
 C     20  19  15     1.384189616929    91.85737803   178.75563784
 C     19  15   9     1.391232772908   123.67324183   240.25341776
 H     16  15   9     1.094876381829   147.69197778   291.41081346
 H     17  16  15     1.092206167723   118.69939017   181.41428070
 H     18  15   9     1.091647688151   119.41925208   115.36951593
 H     20  19  15     1.094962591998   147.57392924   358.37268957
 H     21  20  19     1.092270411181   118.77893892   178.81689554
 H     22  19  15     1.092050812093   119.42737331   359.45938220
 C     12   6   5     3.009048631701   123.33775867   325.94140592
 C     29  12   6     2.318917607553    66.89111282   118.78959720
 C     30  29  12     1.384350486759    91.89088433   110.81300005
 C     29  12   6     1.390993748861   109.33749129   201.16358605
 C     29  12   6     1.472005394071    97.75244536   331.01808489
 C     33  29  12     2.319234963518   145.43902102    59.53892084
 C     34  33  29     1.384273051721    91.90023975   179.51750699
 C     33  29  12     1.391330403234   123.71658431   238.85801260
 H     30  29  12     1.094843851604   147.60644190   290.32721819
 H     32  29  12     1.091776278622   119.35427777   112.81883669
 H     34  33  29     1.094838919992   147.68881877     0.54893008
 H     36  33  29     1.092077635140   119.49254595     1.49893861
 N     30  29  12     1.340900840567    30.92203924   291.14169484
 N      6   5   1     1.341178876548    30.92372875     0.73731820
 N     20  19  15     1.341007281088    30.89176741   358.85606709
 N      2   1   3     1.341175135265    30.90341197   180.31745160
 N     16  15   9     1.341121546594    30.93058825   290.52362866
 N     34  33  29     1.341084025492    30.91382308   359.83102048
 Ru    44   2   1     2.071244271673   125.48474476   179.75905785
 H     31  30  29     1.092358934227   118.66563441   178.52292827
 H     35  34  33     1.092400484740   118.77478163   181.31264115
 C      8   5   1     1.400101285238   120.68013428   179.84439570
 C      4   1   2     1.400026740500   120.65050892   359.93357930
 C     18  15   9     1.400194530817   120.69299476   294.13913839
 C     22  19  15     1.400207330297   120.61186517   180.77573875
 C     32  29  12     1.400292772679   120.70217158   294.20909137
 C     36  33  29     1.400076209613   120.66103150   180.40526394
 C     54  32  29     1.474307588784   121.51051368   180.10581673
 C     56  54  32     1.404031106488   121.00334949   207.96373520
 C     56  54  32     1.402804562355   121.05399641    27.93741471
 C     57  56  54     1.389150072881   120.87047594   179.84954606
 H     57  56  54     1.094447236790   119.96880259     1.54600842
 C     58  56  54     1.390185388272   120.90999737   179.73439186
 C     61  58  56     1.400043309789   121.22926250     0.30029743
 H     59  57  56     1.095511499125   119.51947752   180.93566027
 H     61  58  56     1.095383747050   119.50433188   180.53126450
 C     55  36  33     1.474062786358   121.52541600   179.76086602
 C     65  55  36     1.402992895105   120.91298406   150.45590662
 C     65  55  36     1.403526082520   121.08119654   330.56848469
 C     66  65  55     1.390188867851   120.85390380   180.30621053
 H     66  65  55     1.094562917409   119.95852237   358.46921262
 C     67  65  55     1.389433965309   120.84949587   180.12480584
 C     68  66  65     1.400374560149   121.23538474   359.42368005
 H     68  66  65     1.095397364460   119.50257314   178.97509611
 H     70  67  65     1.095500131250   119.52261635   179.48187149
 C     51   4   1     1.474199557682   121.53242565   179.99920650
 C     74  51   4     1.403720530466   120.90198099   151.81290412
 C     74  51   4     1.402880086637   121.12815325   331.56179872
 C     75  74  51     1.389286804962   120.86344596   180.09423040
 C     76  74  51     1.390214183058   120.88517068   180.31387643
 H     76  74  51     1.094446775933   120.00436433   358.45477054
 C     78  76  74     1.400165217069   121.23116913   359.49530779
 H     77  75  74     1.095477788176   119.53403421   179.50676001
 H     78  76  74     1.095370495411   119.49895963   179.00421941
 C     52  18  15     1.474169649833   121.52238533   179.73023201
 C     83  52  18     1.403819385956   120.98152504   153.12287348
 C     83  52  18     1.403036774363   121.07729064   332.77172814
 C     84  83  52     1.389279206902   120.87845366   179.88447850
 C     85  83  52     1.390139257846   120.90176277   180.48431881
 H     85  83  52     1.094489107574   120.00296309   358.73418453
 C     87  85  83     1.400197858856   121.23273096   359.51133837
 H     86  84  83     1.095488796418   119.52818156   179.58530643
 H     87  85  83     1.095378745322   119.50686641   179.01791116
 C     53  22  19     1.474076757447   121.59488446   180.16269841
 C     92  53  22     1.402921604611   121.11574976    28.59818364
 C     92  53  22     1.403596860909   120.89982760   208.60654013
 C     93  92  53     1.390070786636   120.86908568   179.79611636
 C     94  92  53     1.389493168964   120.86457659   179.75956121
 H     94  92  53     1.094464633616   119.93416811     1.47157100
 C     95  93  92     1.400363200507   121.23879997     0.29271502
 H     95  93  92     1.095395391132   119.52115483   180.51110029
 H     96  94  92     1.095460708116   119.51906052   181.01734514
 C     50   8   5     1.474196271802   121.52056310   179.96048610
 C    101  50   8     1.403258158725   120.95195283   152.73709072
 C    101  50   8     1.403420695379   121.09592923   332.53358452
 C    102 101  50     1.389715239558   120.88167213   180.15402273
 C    103 101  50     1.389725512304   120.89010189   180.26613127
 H    103 101  50     1.094468278055   119.97978616   358.51353102
 C    104 102 101     1.400568234241   121.24983442   359.67669805
 H    104 102 101     1.095436768805   119.52146932   179.51506363
 H    105 103 101     1.095441642512   119.51594811   179.01282525
 H    102 101  50     1.094296190761   119.99401728   358.86332641
 H     75  74  51     1.094412757268   119.97058037   358.73116515
 H     93  92  53     1.094400407667   120.00303330     1.23976831
 H     84  83  52     1.094450842052   120.00316703   358.55966990
 H     67  65  55     1.094535429547   119.99910091   358.66915958
 H     58  56  54     1.094379940644   120.01617879     1.14616206
 C     71  68  66     1.494730118720   121.23114893   181.58836811
 H    116  71  68     1.101196895083   111.61913423   212.23651804
 H    116  71  68     1.100769611033   111.68718906   334.01906413
 H    116  71  68     1.104378716982   110.90529004    93.28214987
 C     62  61  58     1.494697634644   121.33275283   181.12462291
 H    120  62  61     1.104300135589   110.91110536    97.76630820
 H    120  62  61     1.101455331057   111.53655153   216.50862236
 H    120  62  61     1.100576541409   111.74293481   338.23843639
 C    107 104 102     1.494631008639   121.07755489   178.79438378
 H    124 107 104     1.104404069006   110.88466577   270.18416775
 H    124 107 104     1.100955180240   111.65033383    29.30425612
 H    124 107 104     1.101012228066   111.64657803   151.10734706
 C     80  78  76     1.494642425073   121.28562356   181.50606696
 H    128  80  78     1.104341159828   110.91533258    95.72034212
 H    128  80  78     1.101339247284   111.57060670   214.57301978
 H    128  80  78     1.100668560849   111.69950566   336.33171488
 C     98  95  93     1.494637686975   121.19251882   181.19091658
 H    132  98  95     1.104382943923   110.89439197    93.18704311
 H    132  98  95     1.101180710740   111.59727260   212.10899521
 H    132  98  95     1.100783602262   111.69001103   333.90008976
 C     89  87  85     1.494588755003   121.26886474   181.45636625
 H    136  89  87     1.104351272794   110.91766043    95.26629854
 H    136  89  87     1.101309113114   111.57625618   214.14889221
 H    136  89  87     1.100703476791   111.67807562   335.89665987

---------------------------
INTERNAL COORDINATES (A.U.)
---------------------------
 C      0   0   0     0.000000000000     0.00000000     0.00000000
 C      1   0   0     4.382630993678     0.00000000     0.00000000
 C      2   1   0     2.615702561524    91.87187629     0.00000000
 C      1   2   3     2.628981816240    90.86545280     0.12462219
 C      1   2   3     2.782136075111   145.41947825   180.04971601
 C      5   1   2     4.382672784679   145.52243217   358.25661259
 C      6   5   1     2.615782517607    91.86107652   180.34443474
 C      5   1   2     2.628524955071   123.61320876   178.41868614
 H      2   1   3     2.068781650762   147.66483068   181.08786341
 H      3   2   1     2.064241328712   118.79089979   181.28774177
 H      4   1   2     2.063328341111   119.38552670   181.16808640
 H      6   5   1     2.069004829215   147.61359185     1.27000409
 H      7   6   5     2.064119999034   118.71815871   181.09411795
 H      8   5   1     2.063316170340   119.40736012     1.01261620
 C      9   2   1     5.629193079236   122.51758646   323.73730728
 C     15   9   2     4.382290511979    67.08183919   120.52276988
 C     16  15   9     2.615672649832    91.87128375   110.21849776
 C     15   9   2     2.628398633607   108.98869062   203.14789088
 C     15   9   2     2.781890242180    97.87521685   332.87056742
 C     19  15   9     4.383058962816   145.42821064    61.52440695
 C     20  19  15     2.615739293413    91.85737803   178.75563784
 C     19  15   9     2.629048929332   123.67324183   240.25341776
 H     16  15   9     2.069016512156   147.69197778   291.41081346
 H     17  16  15     2.063970538777   118.69939017   181.41428070
 H     18  15   9     2.062915165333   119.41925208   115.36951593
 H     20  19  15     2.069179425764   147.57392924   358.37268957
 H     21  20  19     2.064091941317   118.77893892   178.81689554
 H     22  19  15     2.063676959182   119.42737331   359.45938220
 C     12   6   5     5.686277837565   123.33775867   325.94140592
 C     29  12   6     4.382119205404    66.89111282   118.78959720
 C     30  29  12     2.616043293334    91.89088433   110.81300005
 C     29  12   6     2.628597239343   109.33749129   201.16358605
 C     29  12   6     2.781687062449    97.75244536   331.01808489
 C     33  29  12     4.382718921264   145.43902102    59.53892084
 C     34  33  29     2.615896962319    91.90023975   179.51750699
 C     33  29  12     2.629233423910   123.71658431   238.85801260
 H     30  29  12     2.068955038939   147.60644190   290.32721819
 H     32  29  12     2.063158166107   119.35427777   112.81883669
 H     34  33  29     2.068945719544   147.68881877     0.54893008
 H     36  33  29     2.063727647396   119.49254595     1.49893861
 N     30  29  12     2.533935361417    30.92203924   291.14169484
 N      6   5   1     2.534460773276    30.92372875     0.73731820
 N     20  19  15     2.534136504851    30.89176741   358.85606709
 N      2   1   3     2.534453703276    30.90341197   180.31745160
 N     16  15   9     2.534352435364    30.93058825   290.52362866
 N     34  33  29     2.534281530756    30.91382308   359.83102048
 Ru    44   2   1     3.914084429915   125.48474476   179.75905785
 H     31  30  29     2.064259225631   118.66563441   178.52292827
 H     35  34  33     2.064337744722   118.77478163   181.31264115
 C      8   5   1     2.645807988852   120.68013428   179.84439570
 C      4   1   2     2.645667119711   120.65050892   359.93357930
 C     18  15   9     2.645984197459   120.69299476   294.13913839
 C     22  19  15     2.646008384970   120.61186517   180.77573875
 C     32  29  12     2.646169847673   120.70217158   294.20909137
 C     36  33  29     2.645760602786   120.66103150   180.40526394
 C     54  32  29     2.786037579963   121.51051368   180.10581673
 C     56  54  32     2.653234274769   121.00334949   207.96373520
 C     56  54  32     2.650916442267   121.05399641    27.93741471
 C     57  56  54     2.625113196662   120.87047594   179.84954606
 H     57  56  54     2.068205545560   119.96880259     1.54600842
 C     58  56  54     2.627069659213   120.90999737   179.73439186
 C     61  58  56     2.645698431130   121.22926250     0.30029743
 H     59  57  56     2.070216709908   119.51947752   180.93566027
 H     61  58  56     2.069975293473   119.50433188   180.53126450
 C     55  36  33     2.785574970421   121.52541600   179.76086602
 C     65  55  36     2.651272339585   120.91298406   150.45590662
 C     65  55  36     2.652279917778   121.08119654   330.56848469
 C     66  65  55     2.627076234665   120.85390380   180.30621053
 H     66  65  55     2.068424150248   119.95852237   358.46921262
 C     67  65  55     2.625649675602   120.84949587   180.12480584
 C     68  66  65     2.646324403592   121.23538474   359.42368005
 H     68  66  65     2.070001026649   119.50257314   178.97509611
 H     70  67  65     2.070195227737   119.52261635   179.48187149
 C     51   4   1     2.785833430766   121.53242565   179.99920650
 C     74  51   4     2.652647371143   120.90198099   151.81290412
 C     74  51   4     2.651059162477   121.12815325   331.56179872
 C     75  74  51     2.625371582848   120.86344596   180.09423040
 C     76  74  51     2.627124073474   120.88517068   180.31387643
 H     76  74  51     2.068204674666   120.00436433   358.45477054
 C     78  76  74     2.645928802503   121.23116913   359.49530779
 H     77  75  74     2.070153005447   119.53403421   179.50676001
 H     78  76  74     2.069950251505   119.49895963   179.00421941
 C     52  18  15     2.785776913123   121.52238533   179.73023201
 C     83  52  18     2.652834180946   120.98152504   153.12287348
 C     83  52  18     2.651355259366   121.07729064   332.77172814
 C     84  83  52     2.625357224596   120.87845366   179.88447850
 C     85  83  52     2.626982485342   120.90176277   180.48431881
 H     85  83  52     2.068284669875   120.00296309   358.73418453
 C     87  85  83     2.645990486541   121.23273096   359.51133837
 H     86  84  83     2.070173808009   119.52818156   179.58530643
 H     87  85  83     2.069965841578   119.50686641   179.01791116
 C     53  22  19     2.785601371953   121.59488446   180.16269841
 C     92  53  22     2.651137620077   121.11574976    28.59818364
 C     92  53  22     2.652413669550   120.89982760   208.60654013
 C     93  92  53     2.626853093507   120.86908568   179.79611636
 C     94  92  53     2.625761554297   120.86457659   179.75956121
 H     94  92  53     2.068238420797   119.93416811     1.47157100
 C     95  93  92     2.646302936980   121.23879997     0.29271502
 H     95  93  92     2.069997297599   119.52115483   180.51110029
 H     96  94  92     2.070120728810   119.51906052   181.01734514
 C     50   8   5     2.785827221354   121.52056310   179.96048610
 C    101  50   8     2.651773615181   120.95195283   152.73709072
 C    101  50   8     2.652080764944   121.09592923   332.53358452
 C    102 101  50     2.626181206902   120.88167213   180.15402273
 C    103 101  50     2.626200619578   120.89010189   180.26613127
 H    103 101  50     2.068245307789   119.97978616   358.51353102
 C    104 102 101     2.646690394586   121.24983442   359.67669805
 H    104 102 101     2.070075490070   119.52146932   179.51506363
 H    105 103 101     2.070084700040   119.51594811   179.01282525
 H    102 101  50     2.067920109931   119.99401728   358.86332641
 H     75  74  51     2.068140388705   119.97058037   358.73116515
 H     93  92  53     2.068117051342   120.00303330     1.23976831
 H     84  83  52     2.068212358518   120.00316703   358.55966990
 H     67  65  55     2.068372205718   119.99910091   358.66915958
 H     58  56  54     2.068078374274   120.01617879     1.14616206
 C     71  68  66     2.824630568505   121.23114893   181.58836811
 H    116  71  68     2.080960551232   111.61913423   212.23651804
 H    116  71  68     2.080153101395   111.68718906   334.01906413
 H    116  71  68     2.086973323227   110.90529004    93.28214987
 C     62  61  58     2.824569182497   121.33275283   181.12462291
 H    120  62  61     2.086824825915   110.91110536    97.76630820
 H    120  62  61     2.081448924445   111.53655153   216.50862236
 H    120  62  61     2.079788252681   111.74293481   338.23843639
 C    107 104 102     2.824443277595   121.07755489   178.79438378
 H    124 107 104     2.087021231610   110.88466577   270.18416775
 H    124 107 104     2.080503776376   111.65033383    29.30425612
 H    124 107 104     2.080611581142   111.64657803   151.10734706
 C     80  78  76     2.824464851528   121.28562356   181.50606696
 H    128  80  78     2.086902350492   110.91533258    95.72034212
 H    128  80  78     2.081229557907   111.57060670   214.57301978
 H    128  80  78     2.079962144222   111.69950566   336.33171488
 C     98  95  93     2.824455897820   121.19251882   181.19091658
 H    132  98  95     2.086981310987   110.89439197    93.18704311
 H    132  98  95     2.080929967255   111.59727260   212.10899521
 H    132  98  95     2.080179540986   111.69001103   333.90008976
 C     89  87  85     2.824363429794   121.26886474   181.45636625
 H    136  89  87     2.086921461228   110.91766043    95.26629854
 H    136  89  87     2.081172612576   111.57625618   214.14889221
 H    136  89  87     2.080028125789   111.67807562   335.89665987

---------------------
BASIS SET INFORMATION
---------------------
There are 4 groups of distinct atoms

 Group   1 Type C   : 7s4p1d contracted to 3s2p1d pattern {511/31/1}
 Group   2 Type H   : 4s1p contracted to 2s1p pattern {31/1}
 Group   3 Type N   : 7s4p1d contracted to 3s2p1d pattern {511/31/1}
 Group   4 Type Ru  : 22s15p9d1f contracted to 15s10p5d1f pattern {811111111111111/6111111111/51111/1}

Atom   0C    basis set group =>   1
Atom   1C    basis set group =>   1
Atom   2C    basis set group =>   1
Atom   3C    basis set group =>   1
Atom   4C    basis set group =>   1
Atom   5C    basis set group =>   1
Atom   6C    basis set group =>   1
Atom   7C    basis set group =>   1
Atom   8H    basis set group =>   2
Atom   9H    basis set group =>   2
Atom  10H    basis set group =>   2
Atom  11H    basis set group =>   2
Atom  12H    basis set group =>   2
Atom  13H    basis set group =>   2
Atom  14C    basis set group =>   1
Atom  15C    basis set group =>   1
Atom  16C    basis set group =>   1
Atom  17C    basis set group =>   1
Atom  18C    basis set group =>   1
Atom  19C    basis set group =>   1
Atom  20C    basis set group =>   1
Atom  21C    basis set group =>   1
Atom  22H    basis set group =>   2
Atom  23H    basis set group =>   2
Atom  24H    basis set group =>   2
Atom  25H    basis set group =>   2
Atom  26H    basis set group =>   2
Atom  27H    basis set group =>   2
Atom  28C    basis set group =>   1
Atom  29C    basis set group =>   1
Atom  30C    basis set group =>   1
Atom  31C    basis set group =>   1
Atom  32C    basis set group =>   1
Atom  33C    basis set group =>   1
Atom  34C    basis set group =>   1
Atom  35C    basis set group =>   1
Atom  36H    basis set group =>   2
Atom  37H    basis set group =>   2
Atom  38H    basis set group =>   2
Atom  39H    basis set group =>   2
Atom  40N    basis set group =>   3
Atom  41N    basis set group =>   3
Atom  42N    basis set group =>   3
Atom  43N    basis set group =>   3
Atom  44N    basis set group =>   3
Atom  45N    basis set group =>   3
Atom  46Ru   basis set group =>   4
Atom  47H    basis set group =>   2
Atom  48H    basis set group =>   2
Atom  49C    basis set group =>   1
Atom  50C    basis set group =>   1
Atom  51C    basis set group =>   1
Atom  52C    basis set group =>   1
Atom  53C    basis set group =>   1
Atom  54C    basis set group =>   1
Atom  55C    basis set group =>   1
Atom  56C    basis set group =>   1
Atom  57C    basis set group =>   1
Atom  58C    basis set group =>   1
Atom  59H    basis set group =>   2
Atom  60C    basis set group =>   1
Atom  61C    basis set group =>   1
Atom  62H    basis set group =>   2
Atom  63H    basis set group =>   2
Atom  64C    basis set group =>   1
Atom  65C    basis set group =>   1
Atom  66C    basis set group =>   1
Atom  67C    basis set group =>   1
Atom  68H    basis set group =>   2
Atom  69C    basis set group =>   1
Atom  70C    basis set group =>   1
Atom  71H    basis set group =>   2
Atom  72H    basis set group =>   2
Atom  73C    basis set group =>   1
Atom  74C    basis set group =>   1
Atom  75C    basis set group =>   1
Atom  76C    basis set group =>   1
Atom  77C    basis set group =>   1
Atom  78H    basis set group =>   2
Atom  79C    basis set group =>   1
Atom  80H    basis set group =>   2
Atom  81H    basis set group =>   2
Atom  82C    basis set group =>   1
Atom  83C    basis set group =>   1
Atom  84C    basis set group =>   1
Atom  85C    basis set group =>   1
Atom  86C    basis set group =>   1
Atom  87H    basis set group =>   2
Atom  88C    basis set group =>   1
Atom  89H    basis set group =>   2
Atom  90H    basis set group =>   2
Atom  91C    basis set group =>   1
Atom  92C    basis set group =>   1
Atom  93C    basis set group =>   1
Atom  94C    basis set group =>   1
Atom  95C    basis set group =>   1
Atom  96H    basis set group =>   2
Atom  97C    basis set group =>   1
Atom  98H    basis set group =>   2
Atom  99H    basis set group =>   2
Atom 100C    basis set group =>   1
Atom 101C    basis set group =>   1
Atom 102C    basis set group =>   1
Atom 103C    basis set group =>   1
Atom 104C    basis set group =>   1
Atom 105H    basis set group =>   2
Atom 106C    basis set group =>   1
Atom 107H    basis set group =>   2
Atom 108H    basis set group =>   2
Atom 109H    basis set group =>   2
Atom 110H    basis set group =>   2
Atom 111H    basis set group =>   2
Atom 112H    basis set group =>   2
Atom 113H    basis set group =>   2
Atom 114H    basis set group =>   2
Atom 115C    basis set group =>   1
Atom 116H    basis set group =>   2
Atom 117H    basis set group =>   2
Atom 118H    basis set group =>   2
Atom 119C    basis set group =>   1
Atom 120H    basis set group =>   2
Atom 121H    basis set group =>   2
Atom 122H    basis set group =>   2
Atom 123C    basis set group =>   1
Atom 124H    basis set group =>   2
Atom 125H    basis set group =>   2
Atom 126H    basis set group =>   2
Atom 127C    basis set group =>   1
Atom 128H    basis set group =>   2
Atom 129H    basis set group =>   2
Atom 130H    basis set group =>   2
Atom 131C    basis set group =>   1
Atom 132H    basis set group =>   2
Atom 133H    basis set group =>   2
Atom 134H    basis set group =>   2
Atom 135C    basis set group =>   1
Atom 136H    basis set group =>   2
Atom 137H    basis set group =>   2
Atom 138H    basis set group =>   2
---------------------------------
AUXILIARY/J BASIS SET INFORMATION
---------------------------------
There are 4 groups of distinct atoms

 Group   1 Type C   : 12s5p4d2f1g contracted to 12s5p4d2f1g pattern {111111111111/11111/1111/11/1}
 Group   2 Type H   : 5s2p1d contracted to 5s2p1d pattern {11111/11/1}
 Group   3 Type N   : 12s5p4d2f1g contracted to 12s5p4d2f1g pattern {111111111111/11111/1111/11/1}
 Group   4 Type Ru  : 23s7p6d3f4g contracted to 23s7p6d3f4g pattern {11111111111111111111111/1111111/111111/111/1111}

Atom   0C    basis set group =>   1
Atom   1C    basis set group =>   1
Atom   2C    basis set group =>   1
Atom   3C    basis set group =>   1
Atom   4C    basis set group =>   1
Atom   5C    basis set group =>   1
Atom   6C    basis set group =>   1
Atom   7C    basis set group =>   1
Atom   8H    basis set group =>   2
Atom   9H    basis set group =>   2
Atom  10H    basis set group =>   2
Atom  11H    basis set group =>   2
Atom  12H    basis set group =>   2
Atom  13H    basis set group =>   2
Atom  14C    basis set group =>   1
Atom  15C    basis set group =>   1
Atom  16C    basis set group =>   1
Atom  17C    basis set group =>   1
Atom  18C    basis set group =>   1
Atom  19C    basis set group =>   1
Atom  20C    basis set group =>   1
Atom  21C    basis set group =>   1
Atom  22H    basis set group =>   2
Atom  23H    basis set group =>   2
Atom  24H    basis set group =>   2
Atom  25H    basis set group =>   2
Atom  26H    basis set group =>   2
Atom  27H    basis set group =>   2
Atom  28C    basis set group =>   1
Atom  29C    basis set group =>   1
Atom  30C    basis set group =>   1
Atom  31C    basis set group =>   1
Atom  32C    basis set group =>   1
Atom  33C    basis set group =>   1
Atom  34C    basis set group =>   1
Atom  35C    basis set group =>   1
Atom  36H    basis set group =>   2
Atom  37H    basis set group =>   2
Atom  38H    basis set group =>   2
Atom  39H    basis set group =>   2
Atom  40N    basis set group =>   3
Atom  41N    basis set group =>   3
Atom  42N    basis set group =>   3
Atom  43N    basis set group =>   3
Atom  44N    basis set group =>   3
Atom  45N    basis set group =>   3
Atom  46Ru   basis set group =>   4
Atom  47H    basis set group =>   2
Atom  48H    basis set group =>   2
Atom  49C    basis set group =>   1
Atom  50C    basis set group =>   1
Atom  51C    basis set group =>   1
Atom  52C    basis set group =>   1
Atom  53C    basis set group =>   1
Atom  54C    basis set group =>   1
Atom  55C    basis set group =>   1
Atom  56C    basis set group =>   1
Atom  57C    basis set group =>   1
Atom  58C    basis set group =>   1
Atom  59H    basis set group =>   2
Atom  60C    basis set group =>   1
Atom  61C    basis set group =>   1
Atom  62H    basis set group =>   2
Atom  63H    basis set group =>   2
Atom  64C    basis set group =>   1
Atom  65C    basis set group =>   1
Atom  66C    basis set group =>   1
Atom  67C    basis set group =>   1
Atom  68H    basis set group =>   2
Atom  69C    basis set group =>   1
Atom  70C    basis set group =>   1
Atom  71H    basis set group =>   2
Atom  72H    basis set group =>   2
Atom  73C    basis set group =>   1
Atom  74C    basis set group =>   1
Atom  75C    basis set group =>   1
Atom  76C    basis set group =>   1
Atom  77C    basis set group =>   1
Atom  78H    basis set group =>   2
Atom  79C    basis set group =>   1
Atom  80H    basis set group =>   2
Atom  81H    basis set group =>   2
Atom  82C    basis set group =>   1
Atom  83C    basis set group =>   1
Atom  84C    basis set group =>   1
Atom  85C    basis set group =>   1
Atom  86C    basis set group =>   1
Atom  87H    basis set group =>   2
Atom  88C    basis set group =>   1
Atom  89H    basis set group =>   2
Atom  90H    basis set group =>   2
Atom  91C    basis set group =>   1
Atom  92C    basis set group =>   1
Atom  93C    basis set group =>   1
Atom  94C    basis set group =>   1
Atom  95C    basis set group =>   1
Atom  96H    basis set group =>   2
Atom  97C    basis set group =>   1
Atom  98H    basis set group =>   2
Atom  99H    basis set group =>   2
Atom 100C    basis set group =>   1
Atom 101C    basis set group =>   1
Atom 102C    basis set group =>   1
Atom 103C    basis set group =>   1
Atom 104C    basis set group =>   1
Atom 105H    basis set group =>   2
Atom 106C    basis set group =>   1
Atom 107H    basis set group =>   2
Atom 108H    basis set group =>   2
Atom 109H    basis set group =>   2
Atom 110H    basis set group =>   2
Atom 111H    basis set group =>   2
Atom 112H    basis set group =>   2
Atom 113H    basis set group =>   2
Atom 114H    basis set group =>   2
Atom 115C    basis set group =>   1
Atom 116H    basis set group =>   2
Atom 117H    basis set group =>   2
Atom 118H    basis set group =>   2
Atom 119C    basis set group =>   1
Atom 120H    basis set group =>   2
Atom 121H    basis set group =>   2
Atom 122H    basis set group =>   2
Atom 123C    basis set group =>   1
Atom 124H    basis set group =>   2
Atom 125H    basis set group =>   2
Atom 126H    basis set group =>   2
Atom 127C    basis set group =>   1
Atom 128H    basis set group =>   2
Atom 129H    basis set group =>   2
Atom 130H    basis set group =>   2
Atom 131C    basis set group =>   1
Atom 132H    basis set group =>   2
Atom 133H    basis set group =>   2
Atom 134H    basis set group =>   2
Atom 135C    basis set group =>   1
Atom 136H    basis set group =>   2
Atom 137H    basis set group =>   2
Atom 138H    basis set group =>   2


           ************************************************************
           *        Program running with 8 parallel MPI-processes     *
           *              working on a common directory               *
           ************************************************************
------------------------------------------------------------------------------
                           ORCA GTO INTEGRAL CALCULATION
                           -- RI-GTO INTEGRALS CHOSEN --
------------------------------------------------------------------------------
------------------------------------------------------------------------------
                   ___                                                        
                  /   \      - P O W E R E D   B Y -                         
                 /     \                                                     
                 |  |  |   _    _      __       _____    __    __             
                 |  |  |  | |  | |    /  \     |  _  \  |  |  /  |          
                  \  \/   | |  | |   /    \    | | | |  |  | /  /          
                 / \  \   | |__| |  /  /\  \   | |_| |  |  |/  /          
                |  |  |   |  __  | /  /__\  \  |    /   |      \           
                |  |  |   | |  | | |   __   |  |    \   |  |\   \          
                \     /   | |  | | |  |  |  |  | |\  \  |  | \   \       
                 \___/    |_|  |_| |__|  |__|  |_| \__\ |__|  \__/        
                                                                              
                      - O R C A' S   B I G   F R I E N D -                    
                                      &                                       
                       - I N T E G R A L  F E E D E R -                       
                                                                              
 v1 FN, 2020, v2 2021                                                         
------------------------------------------------------------------------------


Reading SHARK input file Ru-arylbpy_3_SOC-M06_def2SVP.SHARKINP.tmp ... ok
----------------------
SHARK INTEGRAL PACKAGE
----------------------

Number of atoms                             ...    139
Number of basis functions                   ...   1469
Number of shells                            ...    679
Maximum angular momentum                    ...      3
Integral batch strategy                     ... SHARK/LIBINT Hybrid
RI-J (if used) integral strategy            ... SPLIT-RIJ (Revised 2003 algorithm where possible)
Printlevel                                  ...      1
Contraction scheme used                     ... SEGMENTED contraction
Coulomb Range Separation                    ... NOT USED
Exchange Range Separation                   ... NOT USED
Finite Nucleus Model                        ... NOT USED
Auxiliary Coulomb fitting basis             ... AVAILABLE
   # of basis functions in Aux-J            ...   6551
   # of shells in Aux-J                     ...   2395
   Maximum angular momentum in Aux-J        ...      4
Auxiliary J/K fitting basis                 ... NOT available
Auxiliary Correlation fitting basis         ... NOT available
Auxiliary 'external' fitting basis          ... NOT available
Integral threshold                          ...     1.000000e-10
Primitive cut-off                           ...     1.000000e-11
Primitive pair pre-selection threshold      ...     1.000000e-11

Calculating pre-screening integrals         ... done (  0.1 sec) Dimension = 679
Organizing shell pair data                  ... done (  0.3 sec)
Shell pair information
Total number of shell pairs                 ...    230860
Shell pairs after pre-screening             ...     72196
Total number of primitive shell pairs       ...    824933
Primitive shell pairs kept                  ...    146078
          la=0 lb=0:  21741 shell pairs
          la=1 lb=0:  27289 shell pairs
          la=1 lb=1:   8700 shell pairs
          la=2 lb=0:   8276 shell pairs
          la=2 lb=1:   5177 shell pairs
          la=2 lb=2:    717 shell pairs
          la=3 lb=0:    159 shell pairs
          la=3 lb=1:    101 shell pairs
          la=3 lb=2:     35 shell pairs
          la=3 lb=3:      1 shell pairs

Calculating one electron integrals          ... done (  0.2 sec)
Calculating RI/J V-Matrix + Cholesky decomp.... done (  2.9 sec)
Calculating Nuclear repulsion               ... done (  0.0 sec) ENN=  14016.881603497033 Eh

SHARK setup successfully completed in   4.0 seconds

Maximum memory used throughout the entire GTOINT-calculation: 225.9 MB


           ************************************************************
           *        Program running with 8 parallel MPI-processes     *
           *              working on a common directory               *
           ************************************************************
------------------------------------------------------------------------------
                          ORCA RELATIVISTIC HAMILTONIAN
------------------------------------------------------------------------------

Relativistic Method            ... ZORA(MP)
Treatment of potential         ... Van Wuellen
Nucleus model                  ... Point Nucleus
Speed of light used            ... 137.03598950000000


            *************************************************
            *         ZERO ORDER REGULAR APPROXIMATION      *
            *                     ZORA(MP)                  *
            *            Programmed by FN according to      *
            *                   C. van Wuellen              *
            *       J. Chem. Phys. (1998) vol 109, 392-399  *
            *************************************************

Terms included in model potential: +V(e,N)+V(C)+V(Xa)+V(VWN-V)
Basis function cutoff value   ... 1.000000e-10
Loading the fitted atomic densities (ZORA)   ... done
Calculating the cutoffs                      ... done
Number of fit functions                      ... 1187
Setting up the integration grid ... done

Maximum memory used throughout the entire REL-calculation: 443.0 MB


           ************************************************************
           *        Program running with 8 parallel MPI-processes     *
           *              working on a common directory               *
           ************************************************************
-------------------------------------------------------------------------------
                                 ORCA SCF
-------------------------------------------------------------------------------

------------
SCF SETTINGS
------------
Hamiltonian:
 Density Functional     Method          .... DFT(GTOs)
 Exchange Functional    Exchange        .... M06
 Correlation Functional Correlation     .... M06
 Gradients option       PostSCFGGA      .... off
 Hybrid DFT is turned on
   Fraction HF Exchange ScalHFX         ....  0.270000
   Scaling of DF-GGA-X  ScalDFX         ....  0.730000
   Scaling of DF-GGA-C  ScalDFC         ....  1.000000
   Scaling of DF-LDA-C  ScalLDAC        ....  1.000000
   Perturbative correction              ....  0.000000
   Density functional embedding theory  .... OFF
 RI-approximation to the Coulomb term is turned on
   Number of AuxJ basis functions       .... 6551
   RIJ-COSX (HFX calculated with COS-X)).... on

Relativistic Settings:
 Scalar relativistic method             .... ZORA
 Speed of light used       Velit        ....       137.035989
Orbital energies will be scaled


General Settings:
 Integral files         IntName         .... Ru-arylbpy_3_SOC-M06_def2SVP
 Hartree-Fock type      HFTyp           .... RHF
 Total Charge           Charge          ....    2
 Multiplicity           Mult            ....    1
 Number of Electrons    NEL             ....  576
 Basis Dimension        Dim             .... 1469
 Nuclear Repulsion      ENuc            ....  14016.8816034970 Eh

Convergence Acceleration:
 DIIS                   CNVDIIS         .... on
   Start iteration      DIISMaxIt       ....    12
   Startup error        DIISStart       ....  0.200000
   # of expansion vecs  DIISMaxEq       ....     5
   Bias factor          DIISBfac        ....   1.050
   Max. coefficient     DIISMaxC        ....  10.000
 Trust-Rad. Augm. Hess. CNVTRAH         .... auto
   Auto Start mean grad. ratio tolernc. ....  1.125000
   Auto Start start iteration           ....    20
   Auto Start num. interpolation iter.  ....    10
   Max. Number of Micro iterations      ....    16
   Max. Number of Macro iterations      .... Maxiter - #DIIS iter
   Number of Davidson start vectors     ....     2
   Converg. threshold I  (grad. norm)   ....   5.000e-05
   Converg. threshold II (energy diff.) ....   1.000e-06
   Grad. Scal. Fac. for Micro threshold ....   0.100
   Minimum threshold for Micro iter.    ....   0.010
   NR start threshold (gradient norm)   ....   0.001
   Initial trust radius                 ....   0.400
   Minimum AH scaling param. (alpha)    ....   1.000
   Maximum AH scaling param. (alpha)    .... 1000.000
   Orbital update algorithm             .... Taylor
   White noise on init. David. guess    .... on
   Maximum white noise                  ....   0.010
   Quad. conv. algorithm                .... NR
 SOSCF                  CNVSOSCF        .... off
 Level Shifting         CNVShift        .... on
   Level shift para.    LevelShift      ....    0.2500
   Turn off err/grad.   ShiftErr        ....    0.0010
 Zerner damping         CNVZerner       .... off
 Static damping         CNVDamp         .... on
   Fraction old density DampFac         ....    0.7000
   Max. Damping (<1)    DampMax         ....    0.9800
   Min. Damping (>=0)   DampMin         ....    0.0000
   Turn off err/grad.   DampErr         ....    0.1000
 Fernandez-Rico         CNVRico         .... off

SCF Procedure:
 Maximum # iterations   MaxIter         ....   125
 SCF integral mode      SCFMode         .... Direct
   Integral package                     .... SHARK and LIBINT hybrid scheme
 Reset frequency        DirectResetFreq ....    20
 Integral Threshold     Thresh          ....  1.000e-10 Eh
 Primitive CutOff       TCut            ....  1.000e-11 Eh

Convergence Tolerance:
 Convergence Check Mode ConvCheckMode   .... Total+1el-Energy
 Convergence forced     ConvForced      .... 1
 Energy Change          TolE            ....  1.000e-06 Eh
 1-El. energy change                    ....  1.000e-03 Eh
 DIIS Error             TolErr          ....  1.000e-06


Diagonalization of the overlap matrix:
Smallest eigenvalue                        ... 2.821e-04
Time for diagonalization                   ...    0.311 sec
Threshold for overlap eigenvalues          ... 1.000e-08
Number of eigenvalues below threshold      ... 0
Time for construction of square roots      ...    0.273 sec
Total time needed                          ...    0.590 sec

Time for model grid setup =    1.961 sec

------------------------------
INITIAL GUESS: MODEL POTENTIAL
------------------------------
Loading ZORA relativistic densities                ... done
Calculating cut-offs                               ... done
Initializing the effective Hamiltonian             ... done
Setting up the integral package (SHARK)            ... done
Starting the Coulomb interaction                   ... done (   1.8 sec)
Reading the grid                                   ... done
Mapping shells                                     ... done
Starting the XC term evaluation                    ... done (   0.4 sec)
  promolecular density results
     # of electrons  =    577.964735204
     EX              =   -560.807300139
     EC              =    -20.236255039
     EX+EC           =   -581.043555178
Transforming the Hamiltonian                       ... done (   0.1 sec)
Diagonalizing the Hamiltonian                      ... done (   0.3 sec)
Back transforming the eigenvectors                 ... done (   0.1 sec)
Now organizing SCF variables                       ... done
                      ------------------
                      INITIAL GUESS DONE (   4.8 sec)
                      ------------------
-------------------
DFT GRID GENERATION
-------------------

General Integration Accuracy     IntAcc      ... 4.959
Radial Grid Type                 RadialGrid  ... OptM3 with GC (2021)
Angular Grid (max. ang.)         AngularGrid ... 6 (Lebedev-590)
Angular grid pruning method      GridPruning ... 4 (adaptive)
Weight generation scheme         WeightScheme... Becke
Basis function cutoff            BFCut       ... 1.0000e-10
Integration weight cutoff        WCut        ... 1.0000e-14
Angular grids for H and He will be reduced by one unit
Partially contracted basis set               ... off
Rotationally invariant grid construction     ... off

Total number of grid points                  ...  1653681
Total number of batches                      ...    25911
Average number of points per batch           ...       63
Average number of grid points per atom       ...    11897
Time for grid setup =   25.354 sec

--------------------
COSX GRID GENERATION
--------------------

GRIDX 1
-------
General Integration Accuracy     IntAcc      ... 4.020
[...]
   0  45   24703.1    404.8      0.00298 (  0.00056, -0.00398) (  0.00014, -0.00099) ( -0.00001,  0.00005)
   0  46   25058.1    399.1      0.40569 ( -0.00031,  0.00000) ( -0.00071,  0.00001) (  0.00779, -0.00008)
   0  47   25071.9    398.9      0.00204 (  0.00004,  0.00235) ( -0.00000, -0.00022) (  0.00000,  0.00009)
   0  48   25110.2    398.2      0.08290 (  0.00068, -0.00187) ( -0.00025,  0.00068) ( -0.00013,  0.00036)
   0  49   25155.7    397.5      0.10550 (  0.00025,  0.00043) (  0.00128,  0.00217) (  0.00027,  0.00045)
   0  50   25213.3    396.6      0.03179 ( -0.00059,  0.00281) (  0.00003, -0.00016) ( -0.00014,  0.00067)
   0  51   25213.5    396.6      0.01219 ( -0.00017, -0.00003) (  0.00216,  0.00035) (  0.00026,  0.00004)
   0  52   25380.4    394.0      0.27812 (  0.00160,  0.00029) ( -0.00680, -0.00124) (  0.00272,  0.00050)
   0  53   25382.2    394.0      0.37626 ( -0.00768,  0.00611) ( -0.00104,  0.00082) (  0.00085, -0.00068)
   0  54   25384.5    393.9      0.01558 ( -0.00063, -0.00003) (  0.00106,  0.00005) ( -0.00367, -0.00017)
   0  55   25976.1    385.0      0.95351 (  0.00270, -0.00894) ( -0.00040,  0.00133) ( -0.00056,  0.00184)
   0  56   25979.9    384.9      0.96677 ( -0.00041, -0.00008) (  0.00943,  0.00186) (  0.00219,  0.00043)
   0  57   26027.3    384.2     -0.00081 ( -0.00014,  0.00076) ( -0.00006,  0.00031) ( -0.00009,  0.00046)
   0  58   26192.8    381.8      3.61224 (  0.00160,  0.00021) (  0.00614,  0.00082) ( -0.00997, -0.00134)
   0  59   26726.2    374.2      0.62775 (  0.00902,  0.00379) ( -0.01364, -0.00573) ( -0.00617, -0.00259)
   0  60   26737.8    374.0      0.25236 ( -0.00208,  0.00326) (  0.00198, -0.00312) (  0.00908, -0.01428)
   0  61   26748.7    373.8      0.89442 (  0.02012,  0.00190) (  0.01549,  0.00147) ( -0.00556, -0.00053)
   0  62   26799.0    373.1      0.29512 ( -0.00661, -0.00491) ( -0.00323, -0.00240) (  0.00810,  0.00602)
   0  63   26805.6    373.1      0.08026 (  0.00513, -0.00478) (  0.00449, -0.00418) ( -0.00293,  0.00273)
   0  64   26821.1    372.8      0.14936 ( -0.00720, -0.00551) (  0.00431,  0.00330) ( -0.00363, -0.00278)
   0  65   26874.4    372.1     -0.03943 (  0.00266, -0.00826) (  0.00058, -0.00179) (  0.00219, -0.00681)
   0  66   26903.7    371.7     -0.38673 (  0.00682,  0.00122) ( -0.00850, -0.00152) ( -0.02231, -0.00399)
   0  67   26924.1    371.4      2.38829 (  0.01985,  0.01823) (  0.00812,  0.00745) ( -0.00864, -0.00793)
   0  68   27036.4    369.9      2.18356 (  0.00015, -0.00941) (  0.00007, -0.00444) (  0.00002, -0.00103)
   0  69   27045.7    369.7      1.99214 ( -0.00169, -0.00023) ( -0.01076, -0.00145) ( -0.00133, -0.00018)
   0  70   27073.3    369.4      0.03163 ( -0.00108, -0.00215) ( -0.00016, -0.00032) (  0.00269,  0.00534)
   0  71   27222.3    367.3      1.18640 ( -0.00538, -0.00179) (  0.00592,  0.00198) ( -0.01393, -0.00465)
   0  72   27247.9    367.0      0.05322 (  0.00011, -0.00004) (  0.00348, -0.00123) ( -0.00470,  0.00167)
   0  73   27252.0    366.9      0.18934 ( -0.00139,  0.00378) ( -0.00276,  0.00747) (  0.00031, -0.00085)
   0  74   27268.5    366.7      0.07057 ( -0.00388, -0.00027) (  0.00323,  0.00022) (  0.00060,  0.00004)
   0  75   27300.2    366.3      0.11011 (  0.00095,  0.00307) ( -0.00154, -0.00499) (  0.00021,  0.00069)
   0  76   27303.1    366.3     -0.01779 (  0.00250, -0.00090) ( -0.00208,  0.00075) ( -0.00385,  0.00139)
   0  77   27324.0    366.0      9.24189 (  0.03352,  0.00061) ( -0.02939, -0.00053) (  0.00907,  0.00016)
   0  78   27352.2    365.6      6.39134 ( -0.02350, -0.00497) ( -0.02387, -0.00505) (  0.00501,  0.00106)
   0  79   27369.2    365.4      1.51084 (  0.00351,  0.00014) (  0.01693,  0.00066) (  0.00502,  0.00019)
   0  80   27463.1    364.1      1.53715 (  0.00375,  0.00140) ( -0.00131, -0.00049) ( -0.00096, -0.00036)
   0  81   27464.8    364.1      1.59245 (  0.00432,  0.00080) (  0.00521,  0.00096) (  0.00974,  0.00180)
   0  82   27686.2    361.2    -19.46124 (  0.05313, -0.03300) ( -0.00476,  0.00296) ( -0.00205,  0.00127)
   0  83   27693.1    361.1    -14.24482 ( -0.00550, -0.00219) ( -0.04029, -0.01607) ( -0.00636, -0.00254)
   0  84   27756.7    360.3     -7.59817 ( -0.00068,  0.01797) ( -0.00037,  0.00960) (  0.00127, -0.03336)
   0  85   27774.4    360.0    -14.29700 ( -0.00373,  0.00682) ( -0.00007,  0.00013) ( -0.02570,  0.04694)
   0  86   27804.0    359.7      0.23137 ( -0.00072, -0.00562) ( -0.00061, -0.00475) (  0.00126,  0.00981)
   0  87   27835.1    359.3      0.04726 (  0.00663, -0.01295) ( -0.00596,  0.01165) (  0.00102, -0.00200)
   0  88   27845.3    359.1     -2.79182 (  0.00777, -0.03504) (  0.00197, -0.00890) (  0.00024, -0.00108)
   0  89   27848.6    359.1     -1.31890 (  0.00336, -0.00002) ( -0.01105,  0.00007) (  0.00117, -0.00001)
   0  90   27877.3    358.7      0.06760 ( -0.00023,  0.00274) (  0.00026, -0.00320) (  0.00004, -0.00050)
   0  91   27962.6    357.6      3.47402 ( -0.01013,  0.02009) (  0.00415, -0.00823) ( -0.00014,  0.00029)
   0  92   27981.8    357.4      3.74853 (  0.00902, -0.04153) ( -0.00019,  0.00087) ( -0.00260,  0.01197)
   0  93   28007.7    357.0      6.51246 (  0.04341, -0.01955) (  0.00612, -0.00276) ( -0.00788,  0.00355)
   0  94   28090.9    356.0     -2.27159 ( -0.00236,  0.00286) (  0.00671, -0.00812) ( -0.02362,  0.02860)
   0  95   28121.4    355.6     -0.80780 ( -0.00293,  0.01190) ( -0.00159,  0.00647) (  0.00741, -0.03006)
   0  96   28142.9    355.3      6.29710 ( -0.00499,  0.02417) (  0.00977, -0.04733) (  0.00478, -0.02316)
   0  97   28192.6    354.7      2.36332 ( -0.00488, -0.00649) ( -0.02932, -0.03898) (  0.00372,  0.00495)
   0  98   28204.7    354.6     -0.34629 (  0.00581, -0.02880) ( -0.00100,  0.00498) (  0.00179, -0.00886)
   0  99   28333.6    352.9     -8.17326 (  0.01399,  0.00643) ( -0.03625, -0.01667) ( -0.02690, -0.01237)
   0 100   28363.3    352.6     -4.82481 (  0.01015,  0.02956) ( -0.00107, -0.00313) (  0.01003,  0.02923)
   0 101   28413.0    352.0      5.97729 ( -0.03898,  0.05119) ( -0.00657,  0.00863) (  0.00479, -0.00629)
   0 102   28471.2    351.2     53.30142 ( -0.05107, -0.04540) ( -0.05450, -0.04845) (  0.02817,  0.02505)
   0 103   28485.0    351.1     80.74090 (  0.10734, -0.06928) ( -0.04713,  0.03042) ( -0.00581,  0.00375)
   0 104   28583.9    349.8     -0.86096 ( -0.00625,  0.04064) ( -0.00086,  0.00558) (  0.00069, -0.00449)
   0 105   28625.7    349.3     18.60703 (  0.02775,  0.09366) (  0.02698,  0.09106) ( -0.00474, -0.01600)
   0 106   28634.5    349.2     16.91301 ( -0.07186,  0.03056) (  0.10911, -0.04640) (  0.00097, -0.00041)
   0 107   28656.3    349.0      0.43920 ( -0.00905, -0.00455) (  0.01333,  0.00669) ( -0.00678, -0.00341)
   0 108   28664.8    348.9      6.91810 ( -0.02036,  0.06060) (  0.01065, -0.03169) (  0.00006, -0.00018)
   0 109   28730.2    348.1      0.85542 ( -0.00000,  0.00001) ( -0.00073,  0.01271) ( -0.00007,  0.00130)
   0 110   28739.3    348.0      0.49785 ( -0.00028, -0.00876) (  0.00002,  0.00072) (  0.00025,  0.00774)
   0 111   28741.2    347.9      0.37772 (  0.00190,  0.00428) (  0.00209,  0.00470) ( -0.00137, -0.00308)
   0 112   28761.2    347.7      1.14509 ( -0.00000,  0.00409) ( -0.00002,  0.02538) (  0.00000, -0.00176)
   0 113   28792.7    347.3    -43.12892 ( -0.00286, -0.00067) (  0.00409,  0.00095) (  0.09354,  0.02177)
   0 114   28874.6    346.3    -51.10172 (  0.01703,  0.00394) ( -0.01377, -0.00318) (  0.08720,  0.02016)
   0 115   28892.1    346.1     14.57390 ( -0.02418, -0.04631) ( -0.00651, -0.01246) (  0.00744,  0.01424)
   0 116   28899.7    346.0      9.92154 (  0.01237, -0.01657) ( -0.02005,  0.02686) (  0.00537, -0.00720)
   0 117   28909.8    345.9     -1.64898 ( -0.00584,  0.00394) (  0.00557, -0.00376) (  0.00718, -0.00484)
   0 118   28912.2    345.9      0.37308 (  0.00328,  0.00392) (  0.00178,  0.00212) (  0.00519,  0.00620)
   0 119   28940.4    345.5     10.13974 ( -0.01466,  0.03493) (  0.01093, -0.02604) (  0.00600, -0.01431)
   0 120   28946.3    345.5      2.69890 (  0.01187,  0.00005) ( -0.01625, -0.00007) (  0.01979,  0.00009)
   0 121   29067.0    344.0      0.14379 (  0.00370,  0.01714) ( -0.00024, -0.00113) (  0.00036,  0.00167)
   0 122   29074.9    343.9     -3.71946 (  0.01722, -0.00545) ( -0.01478,  0.00468) (  0.02215, -0.00701)
   0 123   29079.9    343.9     -2.05852 ( -0.01195, -0.01456) (  0.00349,  0.00424) (  0.01478,  0.01800)
   0 124   29083.2    343.8      1.11778 (  0.00679, -0.01200) (  0.01170, -0.02068) (  0.00010, -0.00017)
   0 125   29132.8    343.3    -26.92054 (  0.01214,  0.00739) ( -0.00825, -0.00502) ( -0.06908, -0.04206)
   0 126   29154.4    343.0     -1.45205 (  0.02756, -0.01407) ( -0.01806,  0.00922) ( -0.00945,  0.00483)
   0 127   29168.3    342.8      6.74534 (  0.00069, -0.02091) ( -0.00007,  0.00210) (  0.00039, -0.01191)
   0 128   29270.7    341.6     -0.61753 ( -0.00065,  0.00813) (  0.00261, -0.03265) ( -0.00077,  0.00958)
   0 129   29362.1    340.6      5.79681 (  0.04246,  0.15391) ( -0.04969, -0.18013) ( -0.00851, -0.03086)
   0 130   29484.3    339.2    -11.71976 ( -0.07429,  0.01073) (  0.01740, -0.00251) (  0.03858, -0.00557)
   0 131   29499.8    339.0     -0.26565 (  0.01813, -0.03460) ( -0.03473,  0.06630) ( -0.00560,  0.01069)
   0 132   29518.8    338.8     -5.61188 ( -0.02620, -0.01798) (  0.02839,  0.01948) (  0.02497,  0.01713)
   0 133   29532.0    338.6    -11.98151 ( -0.02545,  0.04860) (  0.03565, -0.06809) (  0.00192, -0.00367)
   0 134   29584.1    338.0     -0.53693 (  0.03749, -0.00617) ( -0.00886,  0.00146) ( -0.01455,  0.00239)
   0 135   29595.1    337.9     -1.80555 (  0.00829,  0.00342) (  0.02672,  0.01104) ( -0.01579, -0.00652)
   0 136   29633.7    337.5      5.07738 ( -0.02667,  0.07266) (  0.00163, -0.00444) (  0.02397, -0.06530)
   0 137   29720.1    336.5     -2.81824 (  0.01316,  0.03840) ( -0.01055, -0.03078) ( -0.00393, -0.01147)
   0 138   29995.8    333.4     45.62716 (  0.03898, -0.30131) ( -0.00810,  0.06258) ( -0.01505,  0.11635)
   0 139   30061.2    332.7      2.79843 ( -0.01545, -0.01163) ( -0.01099, -0.00827) (  0.01048,  0.00789)
   0 140   30072.8    332.5     -1.00760 (  0.01474, -0.00882) ( -0.00425,  0.00255) ( -0.01318,  0.00789)
   0 141   30079.6    332.5     -0.31590 ( -0.02091,  0.01813) (  0.01054, -0.00914) ( -0.01342,  0.01164)
   0 142   30121.5    332.0      3.19307 ( -0.16822,  0.09171) (  0.03086, -0.01682) (  0.02946, -0.01606)
   0 143   30232.1    330.8      5.71986 (  0.02842,  0.00376) ( -0.01811, -0.00239) ( -0.01333, -0.00176)
   0 144   30357.2    329.4    -78.36575 ( -0.31901,  0.06313) (  0.17400, -0.03443) (  0.13233, -0.02619)
   0 145   30688.9    325.9      9.54553 ( -0.00584, -0.06629) ( -0.03237, -0.36708) (  0.00885,  0.10038)
   0 146   30978.3    322.8      3.51009 ( -0.02759, -0.02438) ( -0.03226, -0.02850) (  0.01521,  0.01344)
   0 147   31054.4    322.0    -10.92656 (  0.10555,  0.08355) ( -0.04107, -0.03251) (  0.03709,  0.02936)
   0 148   31152.2    321.0     -4.94835 ( -0.04672,  0.09733) (  0.05979, -0.12457) (  0.04020, -0.08376)
   0 149   31227.0    320.2      0.85527 ( -0.05455,  0.07625) (  0.06555, -0.09163) (  0.02818, -0.03939)
   0 150   31260.5    319.9    -280.72973 ( -0.31665,  0.15507) (  0.06883, -0.03371) (  0.04337, -0.02124)
   0 151   31302.0    319.5     12.07715 ( -0.10070,  0.03431) (  0.05152, -0.01755) (  0.06855, -0.02336)
   0 152   31307.9    319.4    -273.04668 ( -0.08963,  0.00369) ( -0.34406,  0.01415) ( -0.07343,  0.00302)
   0 153   31461.1    317.9      7.75614 (  0.10767, -0.02147) (  0.30819, -0.06145) ( -0.25884,  0.05161)
   0 154   31526.2    317.2    470.66723 (  0.00456, -0.00564) (  0.06250, -0.07732) ( -0.25408,  0.31433)
   0 155   31545.1    317.0     61.58367 (  0.02299, -0.02631) (  0.05244, -0.06000) (  0.10986, -0.12570)
   0 156   31620.3    316.3      0.10434 ( -0.00469,  0.00894) ( -0.01445,  0.02754) (  0.01868, -0.03561)
   0 157   31647.0    316.0      1.09298 (  0.00836, -0.01764) (  0.01383, -0.02918) ( -0.01832,  0.03865)
   0 158   31648.2    316.0     -0.30217 (  0.00246,  0.00376) (  0.00802,  0.01228) (  0.00138,  0.00211)
   0 159   31654.8    315.9     -0.31935 (  0.00033, -0.00119) (  0.01061, -0.03814) ( -0.00526,  0.01891)
   0 160   31682.9    315.6     -0.88877 (  0.02378, -0.02516) (  0.08734, -0.09240) ( -0.05122,  0.05419)
   0 161   31695.1    315.5     -0.15137 ( -0.00319,  0.02749) ( -0.00508,  0.04373) (  0.00237, -0.02037)
   0 162   31703.7    315.4      0.75385 (  0.01613, -0.01983) (  0.01043, -0.01282) ( -0.02351,  0.02889)
   0 163   31748.5    315.0    -21.96424 (  0.03895,  0.09543) (  0.09512,  0.23305) ( -0.07395, -0.18117)
   0 164   31843.1    314.0     -0.04866 ( -0.00060, -0.00118) ( -0.00239, -0.00474) (  0.00215,  0.00426)
   0 165   31843.3    314.0     -0.02594 (  0.00194,  0.00220) (  0.00459,  0.00519) ( -0.00369, -0.00418)
   0 166   31843.5    314.0     -0.00670 (  0.00089, -0.00447) (  0.00018, -0.00089) ( -0.00133,  0.00667)
   0 167   31989.5    312.6      0.38547 (  0.00674, -0.02449) ( -0.01099,  0.03993) ( -0.00442,  0.01606)
   0 168   31991.5    312.6      0.19755 (  0.00136, -0.00110) (  0.00565, -0.00460) (  0.00840, -0.00683)
   0 169   31992.2    312.6      0.36599 (  0.02342,  0.00255) (  0.02523,  0.00275) (  0.02297,  0.00250)
   0 170   31993.3    312.6     -0.90411 ( -0.00063,  0.02158) (  0.00102, -0.03506) (  0.00040, -0.01373)
   0 171   32225.7    310.3      0.03980 (  0.00270, -0.00040) (  0.00170, -0.00025) ( -0.00136,  0.00020)
   0 172   32225.8    310.3      0.17085 ( -0.00114, -0.00050) ( -0.00582, -0.00256) (  0.00375,  0.00165)
   0 173   32227.4    310.3      0.02714 (  0.00013,  0.00062) ( -0.00032, -0.00160) (  0.00250,  0.01230)
   0 174   32245.8    310.1     -0.02905 ( -0.00011,  0.00011) (  0.00079, -0.00079) ( -0.00151,  0.00151)
   0 175   32247.4    310.1     -0.12020 ( -0.00707, -0.00592) ( -0.00378, -0.00316) ( -0.00033, -0.00028)
   0 176   32247.6    310.1      0.01476 (  0.00033, -0.00168) (  0.00031, -0.00158) ( -0.00016,  0.00079)
   0 177   32461.6    308.1     66.60071 ( -0.04648,  0.02495) (  0.08467, -0.04544) (  0.03683, -0.01977)
   0 178   32485.9    307.8     78.85941 ( -0.03932, -0.08449) ( -0.03538, -0.07604) (  0.00966,  0.02077)
   0 179   32594.0    306.8     -0.04341 (  0.00022, -0.00168) (  0.00028, -0.00215) (  0.00370, -0.02854)
   0 180   32743.1    305.4     -4.22542 ( -0.27293, -0.14205) ( -0.16426, -0.08549) ( -0.48909, -0.25454)
   0 181   32846.5    304.4     -0.00089 (  0.00100,  0.00025) (  0.00447,  0.00111) ( -0.00266, -0.00066)
   0 182   32846.8    304.4     -0.00223 (  0.00010, -0.00118) ( -0.00005,  0.00064) ( -0.00006,  0.00072)
   0 183   32847.6    304.4     -0.10069 ( -0.02700, -0.01425) ( -0.01374, -0.00725) ( -0.05316, -0.02804)
   0 184   32868.7    304.2      0.00115 (  0.00005, -0.00104) ( -0.00002,  0.00038) (  0.00000, -0.00005)
   0 185   32869.0    304.2     -0.01406 (  0.00003, -0.00004) ( -0.00201,  0.00249) ( -0.00687,  0.00849)
   0 186   32869.9    304.2     -0.09528 (  0.02474,  0.01737) (  0.01613,  0.01133) (  0.04362,  0.03063)
   0 187   33725.3    296.5    -175.17154 ( -0.25652,  0.00628) ( -0.13005,  0.00318) ( -0.03678,  0.00090)
   0 188   33749.5    296.3    -162.11447 (  0.13967, -0.02528) ( -0.22534,  0.04079) ( -0.00625,  0.00113)
   0 189   33850.3    295.4      9.82818 (  0.00440,  0.00017) (  0.01927,  0.00074) ( -0.07782, -0.00300)
   0 190   34060.1    293.6    -49.67519 ( -0.00445, -0.00019) (  0.18495,  0.00781) ( -0.00708, -0.00030)
   0 191   34074.8    293.5    -34.49455 ( -0.01742, -0.16146) ( -0.00357, -0.03313) ( -0.00221, -0.02049)
   0 192   34171.1    292.6     -6.36498 (  0.00369, -0.06459) (  0.00046, -0.00805) (  0.00015, -0.00263)
   0 193   34463.9    290.2    -31.30837 ( -0.06828,  0.13199) ( -0.00812,  0.01570) ( -0.00515,  0.00995)
   0 194   34468.6    290.1    -31.71240 ( -0.00387, -0.03214) (  0.01833,  0.15222) ( -0.00068, -0.00566)
   0 195   34779.0    287.5    -27.75722 (  0.00233,  0.00074) (  0.12690,  0.04059) (  0.02551,  0.00816)
   0 196   34797.3    287.4    -28.14727 (  0.01804, -0.13083) ( -0.00127,  0.00924) (  0.00230, -0.01668)
   0 197   34879.0    286.7    290.10704 (  0.02280, -0.00512) (  0.03422, -0.00768) ( -0.25124,  0.05638)
   0 198   35082.6    285.0      0.25578 ( -0.00091,  0.02206) (  0.00045, -0.01077) ( -0.00026,  0.00624)
   0 199   35364.6    282.8      2.14442 (  0.02021, -0.04470) (  0.00366, -0.00810) (  0.00256, -0.00566)
   0 200   35401.0    282.5      1.17235 (  0.01116,  0.00750) (  0.02363,  0.01587) (  0.00204,  0.00137)

*The complex numbers are printed as (real, imaginary)

The electronic components of the SOC ground state dipole moment in a.u. are:
           X                     Y                     Z
(  1.11935,  0.00000) ( -0.20186,  0.00000) (  0.56286,  0.00000)

Total run time:    10944.064 sec

           *** ORCA-CIS/TD-DFT FINISHED WITHOUT ERROR ***

Maximum memory used throughout the entire CIS-calculation: 13210.1 MB

---------------------------
SOC CIS/TD-DFT TOTAL ENERGY
---------------------------

    E(SCF)        =  -7684.871412712 Eh
    E(SOC CIS)    =      0.082479921 Eh (SOC Root  1)
    ----------------------------- ---------
    E(tot)        =  -7684.788932791 Eh


-------------------------   --------------------
FINAL SINGLE POINT ENERGY     -7684.788932791371
-------------------------   --------------------


                            ***************************************
                            *     ORCA property calculations      *
                            ***************************************

                                    ---------------------
                                    Active property flags
                                    ---------------------
   (+) Dipole Moment


------------------------------------------------------------------------------
                       ORCA ELECTRIC PROPERTIES CALCULATION
------------------------------------------------------------------------------

Dipole Moment Calculation                       ... on
Quadrupole Moment Calculation                   ... off
Polarizability Calculation                      ... off
GBWName                                         ... Ru-arylbpy_3_SOC-M06_def2SVP.gbw
Electron density                                ... Ru-arylbpy_3_SOC-M06_def2SVP.scfp
The origin for moment calculation is the CENTER OF MASS  = ( 0.002008, -0.000422  0.000971)

-------------
DIPOLE MOMENT
-------------
                                X             Y             Z
Electronic contribution:      1.11935      -0.20207       0.56278
Nuclear contribution   :     -1.16082       0.24413      -0.56126
                        -----------------------------------------
Total Dipole Moment    :     -0.04147       0.04206       0.00152
                        -----------------------------------------
Magnitude (a.u.)       :      0.05909
Magnitude (Debye)      :      0.15019



--------------------
Rotational spectrum 
--------------------
 
Rotational constants in cm-1:     0.000610     0.000599     0.000480 
Rotational constants in MHz :    18.277513    17.957214    14.382093 

 Dipole components along the rotational axes: 
x,y,z [a.u.] :    -0.041452     0.042081     0.001503 
x,y,z [Debye]:    -0.105363     0.106961     0.003819 

 

Timings for individual modules:

Sum of individual times         ...    12563.423 sec (= 209.390 min)
GTO integral calculation        ...        6.105 sec (=   0.102 min)   0.0 %
Relativistic integrals          ...       42.727 sec (=   0.712 min)   0.3 %
SCF iterations                  ...     1568.757 sec (=  26.146 min)  12.5 %
CIS module                      ...    10945.833 sec (= 182.431 min)  87.1 %
                             ****ORCA TERMINATED NORMALLY****
TOTAL RUN TIME: 0 days 3 hours 29 minutes 25 seconds 431 msec
