
                                 *****************
                                 * O   R   C   A *
                                 *****************

                                            #,                                       
                                            ###                                      
                                            ####                                     
                                            #####                                    
                                            ######                                   
                                           ########,                                 
                                     ,,################,,,,,                         
                               ,,#################################,,                 
                          ,,##########################################,,             
                       ,#########################################, ''#####,          
                    ,#############################################,,   '####,        
                  ,##################################################,,,,####,       
                ,###########''''           ''''###############################       
              ,#####''   ,,,,##########,,,,          '''####'''          '####       
            ,##' ,,,,###########################,,,                        '##       
           ' ,,###''''                  '''############,,,                           
         ,,##''                                '''############,,,,        ,,,,,,###''
      ,#''                                            '''#######################'''  
     '                                                          ''''####''''         
             ,#######,   #######,   ,#######,      ##                                
            ,#'     '#,  ##    ##  ,#'     '#,    #''#        ######   ,####,        
            ##       ##  ##   ,#'  ##            #'  '#       #        #'  '#        
            ##       ##  #######   ##           ,######,      #####,   #    #        
            '#,     ,#'  ##    ##  '#,     ,#' ,#      #,         ##   #,  ,#        
             '#######'   ##     ##  '#######'  #'      '#     #####' # '####'        



                  #######################################################
                  #                        -***-                        #
                  #          Department of theory and spectroscopy      #
                  #    Directorship and core code : Frank Neese         #
                  #        Max Planck Institute fuer Kohlenforschung    #
                  #                Kaiser Wilhelm Platz 1               #
                  #                 D-45470 Muelheim/Ruhr               #
                  #                      Germany                        #
                  #                                                     #
                  #                  All rights reserved                #
                  #                        -***-                        #
                  #######################################################


                         Program Version 5.0.2 -  RELEASE  -


 With contributions from (in alphabetic order):
   Daniel Aravena         : Magnetic Suceptibility
   Michael Atanasov       : Ab Initio Ligand Field Theory (pilot matlab implementation)
   Alexander A. Auer      : GIAO ZORA, VPT2 properties, NMR spectrum
   Ute Becker             : Parallelization
   Giovanni Bistoni       : ED, misc. LED, open-shell LED, HFLD
   Martin Brehm           : Molecular dynamics
   Dmytro Bykov           : SCF Hessian
   Vijay G. Chilkuri      : MRCI spin determinant printing, contributions to CSF-ICE
   Dipayan Datta          : RHF DLPNO-CCSD density
   Achintya Kumar Dutta   : EOM-CC, STEOM-CC
   Dmitry Ganyushin       : Spin-Orbit,Spin-Spin,Magnetic field MRCI
   Miquel Garcia          : C-PCM and meta-GGA Hessian, CC/C-PCM, Gaussian charge scheme
   Yang Guo               : DLPNO-NEVPT2, F12-NEVPT2, CIM, IAO-localization
   Andreas Hansen         : Spin unrestricted coupled pair/coupled cluster methods
   Benjamin Helmich-Paris : MC-RPA, TRAH-SCF, COSX integrals
   Lee Huntington         : MR-EOM, pCC
   Robert Izsak           : Overlap fitted RIJCOSX, COSX-SCS-MP3, EOM
   Marcus Kettner         : VPT2
   Christian Kollmar      : KDIIS, OOCD, Brueckner-CCSD(T), CCSD density, CASPT2, CASPT2-K
   Simone Kossmann        : Meta GGA functionals, TD-DFT gradient, OOMP2, MP2 Hessian
   Martin Krupicka        : Initial AUTO-CI
   Lucas Lang             : DCDCAS
   Marvin Lechner         : AUTO-CI (C++ implementation), FIC-MRCC
   Dagmar Lenk            : GEPOL surface, SMD
   Dimitrios Liakos       : Extrapolation schemes; Compound Job, initial MDCI parallelization
   Dimitrios Manganas     : Further ROCIS development; embedding schemes
   Dimitrios Pantazis     : SARC Basis sets
   Anastasios Papadopoulos: AUTO-CI, single reference methods and gradients
   Taras Petrenko         : DFT Hessian,TD-DFT gradient, ASA, ECA, R-Raman, ABS, FL, XAS/XES, NRVS
   Peter Pinski           : DLPNO-MP2, DLPNO-MP2 Gradient
   Christoph Reimann      : Effective Core Potentials
   Marius Retegan         : Local ZFS, SOC
   Christoph Riplinger    : Optimizer, TS searches, QM/MM, DLPNO-CCSD(T), (RO)-DLPNO pert. Triples
   Tobias Risthaus        : Range-separated hybrids, TD-DFT gradient, RPA, STAB
   Michael Roemelt        : Original ROCIS implementation
   Masaaki Saitow         : Open-shell DLPNO-CCSD energy and density
   Barbara Sandhoefer     : DKH picture change effects
   Avijit Sen             : IP-ROCIS
   Kantharuban Sivalingam : CASSCF convergence, NEVPT2, FIC-MRCI
   Bernardo de Souza      : ESD, SOC TD-DFT
   Georgi Stoychev        : AutoAux, RI-MP2 NMR, DLPNO-MP2 response
   Willem Van den Heuvel  : Paramagnetic NMR
   Boris Wezisla          : Elementary symmetry handling
   Frank Wennmohs         : Technical directorship


 We gratefully acknowledge several colleagues who have allowed us to
 interface, adapt or use parts of their codes:
   Stefan Grimme, W. Hujo, H. Kruse, P. Pracht,  : VdW corrections, initial TS optimization,
                  C. Bannwarth, S. Ehlert          DFT functionals, gCP, sTDA/sTD-DF
   Ed Valeev, F. Pavosevic, A. Kumar             : LibInt (2-el integral package), F12 methods
   Garnet Chan, S. Sharma, J. Yang, R. Olivares  : DMRG
   Ulf Ekstrom                                   : XCFun DFT Library
   Mihaly Kallay                                 : mrcc  (arbitrary order and MRCC methods)
   Jiri Pittner, Ondrej Demel                    : Mk-CCSD
   Frank Weinhold                                : gennbo (NPA and NBO analysis)
   Christopher J. Cramer and Donald G. Truhlar   : smd solvation model
   Lars Goerigk                                  : TD-DFT with DH, B97 family of functionals
   V. Asgeirsson, H. Jonsson                     : NEB implementation
   FAccTs GmbH                                   : IRC, NEB, NEB-TS, DLPNO-Multilevel, CI-OPT
                                                   MM, QMMM, 2- and 3-layer-ONIOM, Crystal-QMMM,
                                                   LR-CPCM, SF, NACMEs, symmetry and pop. for TD-DFT,
                                                   nearIR, NL-DFT gradient (VV10), updates on ESD,
                                                   ML-optimized integration grids
   S Lehtola, MJT Oliveira, MAL Marques          : LibXC Library
   Liviu Ungur et al                             : ANISO software


 Your calculation uses the libint2 library for the computation of 2-el integrals
 For citations please refer to: http://libint.valeyev.net

 Your ORCA version has been built with support for libXC version: 5.1.0
 For citations please refer to: https://tddft.org/programs/libxc/

 This ORCA versions uses:
   CBLAS   interface :  Fast vector & matrix operations
   LAPACKE interface :  Fast linear algebra routines
   SCALAPACK package :  Parallel linear algebra routines
   Shared memory     :  Shared parallel matrices
   BLAS/LAPACK       :  OpenBLAS 0.3.15  USE64BITINT DYNAMIC_ARCH NO_AFFINITY Zen SINGLE_THREADED
        Core in use  :  Zen
   Copyright (c) 2011-2014, The OpenBLAS Project


Your calculation utilizes the SMD solvation module
Please cite in your paper:
A.V. Marenich, C.J. Cramer, D.G. Truhlar J. Phys. Chem. B, 113, (2009), 6378 

================================================================================

cite the ECPs for Ru [Def2-ECP] as follows:
Ce-Yb(ecp-28): M. Dolg, H. Stoll, H.Preuss, J. Chem. Phys., 1989, 90, 1730-1734.
Y-Cd(ecp-28), Hf-Hg(ecp-46): D. Andrae,U. Haeussermann, M. Dolg, H. Stoll, H. Preuss, Theor. Chim. Acta, 1990, 77, 123-141.
In-Sb(ecp-28), Tl-Bi(ecp-46): B. Metz, H. Stoll, M. Dolg, J. Chem. Phys., 2000, 113, 2563-2569.
Te-Xe(ecp-28), Po-Rn(ecp-46): K. A. Peterson, D. Figgen, E. Goll, H. Stoll, M. Dolg, J. Chem. Phys., 2003, 119, 11113-11123.
Rb(ecp-28), Cs(ecp-46): T. Leininger, A. Nicklass, W. Kuechle, H. Stoll, M. Dolg, A. Bergner, Chem. Phys. Lett., 1996, 255, 274-280.
Sr(ecp-28), Ba(ecp-46): M. Kaupp, P. V. Schleyer, H. Stoll and H. Preuss, J. Chem. Phys., 1991, 94, 1360-1366.
La(ecp-46): M. Dolg, H. Stoll, A. Savin, H. Preuss, Theor. Chim. Acta, 1989, 75, 173-194.
Lu(ecp-28): X. Cao, M. Dolg, J. Chem. Phys., 2001, 115, 7348-7355.

ECP parameters for Ru [Def2-ECP] have been obtained from:
TURBOMOLE (7.0.2)

----- Orbital basis set information -----
Your calculation utilizes the basis: def2-SVP
   F. Weigend and R. Ahlrichs, Phys. Chem. Chem. Phys. 7, 3297 (2005).

----- AuxJ basis set information -----
Your calculation utilizes the auxiliary basis: def2/J
   F. Weigend, Phys. Chem. Chem. Phys. 8, 1057 (2006).

----- AuxC basis set information -----
Your calculation utilizes the auxiliary basis: def2-SVP/C
  H-La, Hf-Rn : A. Hellweg, C. Hattig, S. Hofener and W. Klopper, Theor. Chem. Acc. 117, 587 (2007).
        Ce-Lu : J. Chmela and M. E. Harding, Mol. Phys. (2018).

================================================================================
                                        WARNINGS
                       Please study these warnings very carefully!
================================================================================

INFO   : Checking CIS options ...
  ===> : (D) CORRECTION FOUND - SETTING MODE=3
  ===> : JK MODE FOUND - ACTIVATING RI-MP2 CODE
  ===> : MP2 AND CIS FOUND - CHECKING
WARNING: CIS(D) and MP2 runs must have the same orbital window
  ===> : adjusting orbital windows

WARNING: No MP2 level density has been requested!
         To caclulate MP2 level properties use
         %mp2 Density relaxed end
         or
         %mp2 Density unrelaxed end
         Otherwise for double-hybrid DFT only the energy is correct!

WARNING: The frozen-core approximation is turned on by default for 
         the MP2 part of double-hybrid DFT.

WARNING: CIS/ROCIS methods need fully converged wavefunctions
  ===> : Setting SCFConvForced true
         You can overwrite this default with %scf ConvForced false 


INFO   : the flag for use of the SHARK integral package has been found!

================================================================================
                                       INPUT FILE
================================================================================
NAME = Ru-arylbpy_3.inp
|  1> %maxcore 26000
|  2> %pal
|  3>  nprocs= 8
|  4> end
|  5> ! RI-SCS-PBE-QIDH  def2-SVP def2/J def2-SVP/C RIJCOSX CPCM TIGHTSCF
|  6> 
|  7> %TDDFT 
|  8>     DCORR      4
|  9>     NROOTS    40
| 10>    doscs true
| 11>     TDA       FALSE
| 12> END
| 13> 
| 14> %CPCM
| 15>     SMD		TRUE
| 16>     SMDsolvent	"Acetonitrile"
| 17> END
| 18> 
| 19> * xyz 2 1
| 20> C                   2.72467300   -0.93036900    0.58500600
| 21> C                   2.07216400    0.68631800    2.12069200
| 22> C                   3.27751600    0.59785800    2.79370700
| 23> C                   3.95652000   -1.06087400    1.22066300
| 24> C                   2.33028300   -1.70812800   -0.59437700
| 25> C                   0.64951500   -2.11920700   -2.14539700
| 26> C                   1.42070200   -3.06495900   -2.79706600
| 27> C                   3.15169300   -2.64912700   -1.20963100
| 28> H                   1.29993500    1.38253300    2.45462800
| 29> H                   3.44249100    1.25028900    3.65180800
| 30> H                   4.67218500   -1.78739500    0.83679700
| 31> H                  -0.35349500   -1.87565500   -2.50233400
| 32> H                   1.00676300   -3.55469300   -3.67922600
| 33> H                   4.13719400   -2.84628500   -0.78767600
| 34> C                  -0.56229200    2.81762700    0.57779000
| 35> C                  -1.66004400    1.44534400    2.09851400
| 36> C                  -2.18514000    2.53425600    2.77081000
| 37> C                  -1.06020800    3.95066700    1.21605100
| 38> C                   0.30956100    2.86127300   -0.60116200
| 39> C                   1.51570800    1.60406700   -2.13914600
| 40> C                   1.95067500    2.74122200   -2.79555600
| 41> C                   0.71426900    4.04011700   -1.22269900
| 42> H                  -1.87474400    0.42840900    2.43375600
| 43> H                  -2.80852800    2.35300700    3.64692100
| 44> H                  -0.81213900    4.93394000    0.81697000
| 45> H                   1.81101300    0.61266400   -2.48907800
| 46> H                   2.58566200    2.62434100   -3.67435400
| 47> H                   0.38880300    4.99409000   -0.80848600
| 48> C                  -2.64199300   -1.16657300   -0.61206300
| 49> C                  -2.14843100    0.50970100   -2.14384800
| 50> C                  -3.35795200    0.33580300   -2.79182200
| 51> C                  -3.87171400   -1.38950200   -1.22697900
| 52> C                  -2.16885800   -1.90970100    0.56077600
| 53> C                  -0.44369300   -2.17170100    2.09494500
| 54> C                  -1.12442000   -3.17730600    2.75717800
| 55> C                  -2.89998800   -2.91529400    1.18736400
| 56> H                  -1.43188300    1.25580200   -2.49378400
| 57> H                  -4.53936000   -2.14526000   -0.81323300
| 58> H                   0.54551600   -1.85453400    2.43207000
| 59> H                  -3.88801000   -3.16626000    0.80276900
| 60> N                  -1.78039300   -0.21808100   -1.07434200
| 61> N                   1.08067000   -1.44148300   -1.06648800
| 62> N                   0.70762000    1.64381000   -1.06461800
| 63> N                   1.78201800   -0.05826200    1.03864900
| 64> N                  -0.85764200    1.56557700    1.02580700
| 65> N                  -0.94188600   -1.53591500    1.01949500
| 66> Ru                 -0.00144400   -0.00793900   -0.02404500
| 67> H                  -3.57390500    0.95436200   -3.66345900
| 68> H                  -0.64222600   -3.65464300    3.61080700
| 69> C                   2.71815500   -3.35753900   -2.33905400
| 70> C                   4.26993400   -0.29623100    2.35320500
| 71> C                  -1.88907900    3.84048300    2.34162900
| 72> C                   1.55098000    4.01304200   -2.34740200
| 73> C                  -4.26839200   -0.63772600   -2.34232800
| 74> C                  -2.39595900   -3.58299100    2.31271000
| 75> C                  -2.41436000    5.02702500    3.03510300
| 76> C                  -1.75728800    6.26755700    2.95420800
| 77> C                  -3.59119000    4.96035200    3.80194000
| 78> C                  -2.25299000    7.38584200    3.61437300
| 79> H                  -0.82901100    6.35695800    2.38494000
| 80> C                  -4.08650200    6.08438800    4.45277000
| 81> H                  -4.14662900    4.02187800    3.87008600
| 82> C                  -3.42773100    7.32100300    4.37852500
| 83> H                  -1.71492300    8.33503800    3.53990800
| 84> H                  -5.01288100    6.00574100    5.02864800
| 85> C                   1.98631900    5.24606700   -3.02163000
| 86> C                   1.23270200    6.43021400   -2.93925500
| 87> C                   3.17502700    5.27929100   -3.77210700
| 88> C                   1.64890600    7.59027000   -3.58248600
| 89> H                   0.29159800    6.44208500   -2.38399400
| 90> C                   3.58993800    6.44466700   -4.40599500
| 91> H                   3.80244400    4.38724800   -3.83922300
| 92> C                   2.83542100    7.62512600   -4.33031000
| 93> H                   1.03724100    8.49373600   -3.50735800
| 94> H                   4.52735300    6.44386200   -4.96929900
| 95> C                   5.56540000   -0.42397900    3.03871200
| 96> C                   5.70806500   -0.07514200    4.39341000
| 97> C                   6.70282300   -0.90224300    2.36442200
| 98> C                   6.93163500   -0.20210500    5.04076200
| 99> H                   4.84264200    0.27457200    4.96133200
|100> C                   7.92557800   -1.01883300    3.01506000
|101> H                   6.63871300   -1.16770300    1.30641100
|102> C                   8.06914400   -0.67133600    4.36676100
|103> H                   7.00794100    0.06206200    6.09925100
|104> H                   8.79459300   -1.38584600    2.46179400
|105> C                   3.57623100   -4.34758400   -3.00824800
|106> C                   4.97628700   -4.29740100   -2.89046700
|107> C                   3.02332400   -5.37823200   -3.78896000
|108> C                   5.78307800   -5.23361700   -3.52716500
|109> H                   5.44725600   -3.50011300   -2.31040300
|110> C                   3.83477100   -6.31592500   -4.41645800
|111> H                   1.93881400   -5.46604500   -3.88669400
|112> C                   5.23254300   -6.26367000   -4.30419400
|113> H                   6.86953900   -5.16419800   -3.42326400
|114> H                   3.37461900   -7.11509000   -5.00434500
|115> C                  -3.15603300   -4.64754800    2.98685200
|116> C                  -2.90196000   -4.98398000    4.32835800
|117> C                  -4.16370600   -5.36297900    2.31561800
|118> C                  -3.62424800   -5.98607700    4.96585100
|119> H                  -2.14483500   -4.43681400    4.89471300
|120> C                  -4.87730900   -6.36910900    2.95607900
|121> H                  -4.38213800   -5.14592300    1.26733900
|122> C                  -4.62468100   -6.70489400    4.29476400
|123> H                  -3.41339900   -6.21421500    6.01439900
|124> H                  -5.64986000   -6.91251100    2.40481400
|125> C                  -5.56496000   -0.85318300   -3.00383900
|126> C                  -6.24504100   -2.07944900   -2.90158800
|127> C                  -6.16996300    0.16698400   -3.75948300
|128> C                  -7.47052300   -2.27377300   -3.52866100
|129> H                  -5.80102000   -2.90661900   -2.34278500
|130> C                  -7.39902800   -0.03076000   -4.37750700
|131> H                  -5.68592500    1.14281300   -3.84380500
|132> C                  -8.07621000   -1.25569700   -4.28011600
|133> H                  -7.97182600   -3.24143100   -3.43705300
|134> H                  -7.85169300    0.78742100   -4.94470400
|135> C                  -5.37419600   -7.80427400    4.97167000
|136> H                  -4.87022900   -8.77335700    4.82653700
|137> H                  -5.44350700   -7.64555000    6.05579800
|138> H                  -6.38988300   -7.91624100    4.56988600
|139> C                  -9.37993200   -1.47557400   -4.97341900
|140> H                  -9.96583700   -0.54980300   -5.04688800
|141> H                  -9.22400100   -1.83059000   -6.00481800
|142> H                  -9.99046000   -2.23500300   -4.46771100
|143> C                   6.10117500   -7.25297900   -5.00826900
|144> H                   6.30847700   -6.93186000   -6.04170200
|145> H                   7.07353200   -7.37125800   -4.51268300
|146> H                   5.62366200   -8.23940000   -5.07863800
|147> C                   9.38955200   -0.77235900    5.05594200
|148> H                   9.95546100    0.16873900    4.96518600
|149> H                   9.27656600   -0.96768800    6.13046700
|150> H                  10.01933500   -1.56050400    4.62275700
|151> C                  -3.94315900    8.51683300    5.10863300
|152> H                  -3.53230800    8.56320400    6.13001100
|153> H                  -3.65914600    9.45419900    4.61260400
|154> H                  -5.03606900    8.49392700    5.21161000
|155> C                   3.26598100    8.86481100   -5.04208300
|156> H                   2.86983000    8.88783600   -6.07003100
|157> H                   2.90024500    9.77209900   -4.54368900
|158> H                   4.35883100    8.92979400   -5.12633000
|159> *
|160> 
|161>                          ****END OF INPUT****
================================================================================

                       ****************************
                       * Single Point Calculation *
                       ****************************

---------------------------------
CARTESIAN COORDINATES (ANGSTROEM)
---------------------------------
  C      2.724673   -0.930369    0.585006
  C      2.072164    0.686318    2.120692
  C      3.277516    0.597858    2.793707
  C      3.956520   -1.060874    1.220663
  C      2.330283   -1.708128   -0.594377
  C      0.649515   -2.119207   -2.145397
  C      1.420702   -3.064959   -2.797066
  C      3.151693   -2.649127   -1.209631
  H      1.299935    1.382533    2.454628
  H      3.442491    1.250289    3.651808
  H      4.672185   -1.787395    0.836797
  H     -0.353495   -1.875655   -2.502334
  H      1.006763   -3.554693   -3.679226
  H      4.137194   -2.846285   -0.787676
  C     -0.562292    2.817627    0.577790
  C     -1.660044    1.445344    2.098514
  C     -2.185140    2.534256    2.770810
  C     -1.060208    3.950667    1.216051
  C      0.309561    2.861273   -0.601162
  C      1.515708    1.604067   -2.139146
  C      1.950675    2.741222   -2.795556
  C      0.714269    4.040117   -1.222699
  H     -1.874744    0.428409    2.433756
  H     -2.808528    2.353007    3.646921
  H     -0.812139    4.933940    0.816970
  H      1.811013    0.612664   -2.489078
  H      2.585662    2.624341   -3.674354
  H      0.388803    4.994090   -0.808486
  C     -2.641993   -1.166573   -0.612063
  C     -2.148431    0.509701   -2.143848
  C     -3.357952    0.335803   -2.791822
  C     -3.871714   -1.389502   -1.226979
  C     -2.168858   -1.909701    0.560776
  C     -0.443693   -2.171701    2.094945
  C     -1.124420   -3.177306    2.757178
  C     -2.899988   -2.915294    1.187364
  H     -1.431883    1.255802   -2.493784
  H     -4.539360   -2.145260   -0.813233
  H      0.545516   -1.854534    2.432070
  H     -3.888010   -3.166260    0.802769
  N     -1.780393   -0.218081   -1.074342
  N      1.080670   -1.441483   -1.066488
  N      0.707620    1.643810   -1.064618
  N      1.782018   -0.058262    1.038649
  N     -0.857642    1.565577    1.025807
  N     -0.941886   -1.535915    1.019495
  Ru    -0.001444   -0.007939   -0.024045
  H     -3.573905    0.954362   -3.663459
  H     -0.642226   -3.654643    3.610807
  C      2.718155   -3.357539   -2.339054
  C      4.269934   -0.296231    2.353205
  C     -1.889079    3.840483    2.341629
  C      1.550980    4.013042   -2.347402
  C     -4.268392   -0.637726   -2.342328
  C     -2.395959   -3.582991    2.312710
  C     -2.414360    5.027025    3.035103
  C     -1.757288    6.267557    2.954208
  C     -3.591190    4.960352    3.801940
  C     -2.252990    7.385842    3.614373
  H     -0.829011    6.356958    2.384940
  C     -4.086502    6.084388    4.452770
  H     -4.146629    4.021878    3.870086
  C     -3.427731    7.321003    4.378525
  H     -1.714923    8.335038    3.539908
  H     -5.012881    6.005741    5.028648
  C      1.986319    5.246067   -3.021630
  C      1.232702    6.430214   -2.939255
  C      3.175027    5.279291   -3.772107
  C      1.648906    7.590270   -3.582486
  H      0.291598    6.442085   -2.383994
  C      3.589938    6.444667   -4.405995
  H      3.802444    4.387248   -3.839223
  C      2.835421    7.625126   -4.330310
  H      1.037241    8.493736   -3.507358
  H      4.527353    6.443862   -4.969299
  C      5.565400   -0.423979    3.038712
  C      5.708065   -0.075142    4.393410
  C      6.702823   -0.902243    2.364422
  C      6.931635   -0.202105    5.040762
  H      4.842642    0.274572    4.961332
  C      7.925578   -1.018833    3.015060
  H      6.638713   -1.167703    1.306411
  C      8.069144   -0.671336    4.366761
  H      7.007941    0.062062    6.099251
  H      8.794593   -1.385846    2.461794
  C      3.576231   -4.347584   -3.008248
  C      4.976287   -4.297401   -2.890467
  C      3.023324   -5.378232   -3.788960
  C      5.783078   -5.233617   -3.527165
  H      5.447256   -3.500113   -2.310403
  C      3.834771   -6.315925   -4.416458
  H      1.938814   -5.466045   -3.886694
  C      5.232543   -6.263670   -4.304194
  H      6.869539   -5.164198   -3.423264
  H      3.374619   -7.115090   -5.004345
  C     -3.156033   -4.647548    2.986852
  C     -2.901960   -4.983980    4.328358
  C     -4.163706   -5.362979    2.315618
  C     -3.624248   -5.986077    4.965851
  H     -2.144835   -4.436814    4.894713
  C     -4.877309   -6.369109    2.956079
  H     -4.382138   -5.145923    1.267339
  C     -4.624681   -6.704894    4.294764
  H     -3.413399   -6.214215    6.014399
  H     -5.649860   -6.912511    2.404814
  C     -5.564960   -0.853183   -3.003839
  C     -6.245041   -2.079449   -2.901588
  C     -6.169963    0.166984   -3.759483
  C     -7.470523   -2.273773   -3.528661
  H     -5.801020   -2.906619   -2.342785
  C     -7.399028   -0.030760   -4.377507
  H     -5.685925    1.142813   -3.843805
  C     -8.076210   -1.255697   -4.280116
  H     -7.971826   -3.241431   -3.437053
  H     -7.851693    0.787421   -4.944704
  C     -5.374196   -7.804274    4.971670
  H     -4.870229   -8.773357    4.826537
  H     -5.443507   -7.645550    6.055798
  H     -6.389883   -7.916241    4.569886
  C     -9.379932   -1.475574   -4.973419
  H     -9.965837   -0.549803   -5.046888
  H     -9.224001   -1.830590   -6.004818
  H     -9.990460   -2.235003   -4.467711
  C      6.101175   -7.252979   -5.008269
  H      6.308477   -6.931860   -6.041702
  H      7.073532   -7.371258   -4.512683
  H      5.623662   -8.239400   -5.078638
  C      9.389552   -0.772359    5.055942
  H      9.955461    0.168739    4.965186
  H      9.276566   -0.967688    6.130467
  H     10.019335   -1.560504    4.622757
  C     -3.943159    8.516833    5.108633
  H     -3.532308    8.563204    6.130011
  H     -3.659146    9.454199    4.612604
  H     -5.036069    8.493927    5.211610
  C      3.265981    8.864811   -5.042083
  H      2.869830    8.887836   -6.070031
  H      2.900245    9.772099   -4.543689
  H      4.358831    8.929794   -5.126330

----------------------------
CARTESIAN COORDINATES (A.U.)
----------------------------
  NO LB      ZA    FRAG     MASS         X           Y           Z
   0 C     6.0000    0    12.011    5.148886   -1.758143    1.105501
   1 C     6.0000    0    12.011    3.915822    1.296953    4.007527
   2 C     6.0000    0    12.011    6.193608    1.129788    5.279341
   3 C     6.0000    0    12.011    7.476739   -2.004761    2.306719
   4 C     6.0000    0    12.011    4.403597   -3.227894   -1.123210
   5 C     6.0000    0    12.011    1.227405   -4.004721   -4.054213
   6 C     6.0000    0    12.011    2.684738   -5.791933   -5.285689
   7 C     6.0000    0    12.011    5.955837   -5.006125   -2.285871
   8 H     1.0000    0     1.008    2.456521    2.612609    4.638575
   9 H     1.0000    0     1.008    6.505365    2.362704    6.900917
  10 H     1.0000    0     1.008    8.829150   -3.377687    1.581317
  11 H     1.0000    0     1.008   -0.668009   -3.544474   -4.728726
  12 H     1.0000    0     1.008    1.902506   -6.717396   -6.952730
  13 H     1.0000    0     1.008    7.818164   -5.378699   -1.488492
  14 C     6.0000    0    12.011   -1.062578    5.324543    1.091865
  15 C     6.0000    0    12.011   -3.137029    2.731304    3.965617
  16 C     6.0000    0    12.011   -4.129316    4.789050    5.236072
  17 C     6.0000    0    12.011   -2.003503    7.465679    2.298003
  18 C     6.0000    0    12.011    0.584986    5.407022   -1.136032
  19 C     6.0000    0    12.011    2.864273    3.031247   -4.042400
  20 C     6.0000    0    12.011    3.686242    5.180159   -5.282835
  21 C     6.0000    0    12.011    1.349773    7.634715   -2.310566
  22 H     1.0000    0     1.008   -3.542753    0.809576    4.599132
  23 H     1.0000    0     1.008   -5.307349    4.446539    6.891682
  24 H     1.0000    0     1.008   -1.534720    9.323795    1.543850
  25 H     1.0000    0     1.008    3.422319    1.157767   -4.703676
  26 H     1.0000    0     1.008    4.886193    4.959286   -6.943523
  27 H     1.0000    0     1.008    0.734731    9.437462   -1.527817
  28 C     6.0000    0    12.011   -4.992643   -2.204503   -1.156631
  29 C     6.0000    0    12.011   -4.059946    0.963195   -4.051286
  30 C     6.0000    0    12.011   -6.345610    0.634576   -5.275779
  31 C     6.0000    0    12.011   -7.316479   -2.625778   -2.318654
  32 C     6.0000    0    12.011   -4.098548   -3.608812    1.059713
  33 C     6.0000    0    12.011   -0.838458   -4.103920    3.958872
  34 C     6.0000    0    12.011   -2.124846   -6.004238    5.210311
  35 C     6.0000    0    12.011   -5.480183   -5.509107    2.243793
  36 H     1.0000    0     1.008   -2.705867    2.373122   -4.712569
  37 H     1.0000    0     1.008   -8.578147   -4.053954   -1.536788
  38 H     1.0000    0     1.008    1.030876   -3.504561    4.595946
  39 H     1.0000    0     1.008   -7.347274   -5.983364    1.517014
  40 N     7.0000    0    14.007   -3.364455   -0.412113   -2.030212
  41 N     7.0000    0    14.007    2.042170   -2.724008   -2.015370
  42 N     7.0000    0    14.007    1.337208    3.106351   -2.011836
  43 N     7.0000    0    14.007    3.367526   -0.110099    1.962762
  44 N     7.0000    0    14.007   -1.620709    2.958512    1.938494
  45 N     7.0000    0    14.007   -1.779907   -2.902459    1.926566
  46 Ru   16.0000*   0   101.070   -0.002729   -0.015003   -0.045438
  47 H     1.0000    0     1.008   -6.753702    1.803483   -6.922934
  48 H     1.0000    0     1.008   -1.213631   -6.906274    6.823436
  49 C     6.0000    0    12.011    5.136569   -6.344829   -4.420171
  50 C     6.0000    0    12.011    8.069006   -0.559795    4.446913
  51 C     6.0000    0    12.011   -3.569842    7.257461    4.425038
  52 C     6.0000    0    12.011    2.930927    7.583550   -4.435947
  53 C     6.0000    0    12.011   -8.066092   -1.205127   -4.426358
  54 C     6.0000    0    12.011   -4.527706   -6.770872    4.370389
  55 C     6.0000    0    12.011   -4.562479    9.499701    5.735513
  56 C     6.0000    0    12.011   -3.320793   11.843966    5.582644
  57 C     6.0000    0    12.011   -6.786366    9.373707    7.184625
  58 C     6.0000    0    12.011   -4.257534   13.957219    6.830175
  59 H     1.0000    0     1.008   -1.566604   12.012910    4.506883
  60 C     6.0000    0    12.011   -7.722370   11.497827    8.414516
  61 H     1.0000    0     1.008   -7.835993    7.600248    7.313403
  62 C     6.0000    0    12.011   -6.477473   13.834691    8.274213
  63 H     1.0000    0     1.008   -3.240735   15.750939    6.689457
  64 H     1.0000    0     1.008   -9.472972   11.349206    9.502768
  65 C     6.0000    0    12.011    3.753599    9.913630   -5.710053
  66 C     6.0000    0    12.011    2.329469   12.151343   -5.554387
  67 C     6.0000    0    12.011    5.999931    9.976414   -7.128249
  68 C     6.0000    0    12.011    3.115981   14.343532   -6.769917
  69 H     1.0000    0     1.008    0.551040   12.173776   -4.505096
  70 C     6.0000    0    12.011    6.784000   12.178656   -8.326124
  71 H     1.0000    0     1.008    7.185578    8.290697   -7.255080
  72 C     6.0000    0    12.011    5.358169   14.409400   -8.183100
  73 H     1.0000    0     1.008    1.960101   16.050835   -6.627946
  74 H     1.0000    0     1.008    8.555457   12.177134   -9.390614
  75 C     6.0000    0    12.011   10.517082   -0.801204    5.742333
  76 C     6.0000    0    12.011   10.786680   -0.141998    8.302342
  77 C     6.0000    0    12.011   12.666500   -1.704992    4.468110
  78 C     6.0000    0    12.011   13.098892   -0.381923    9.525660
  79 H     1.0000    0     1.008    9.151267    0.518866    9.375559
  80 C     6.0000    0    12.011   14.977172   -1.925315    5.697638
  81 H     1.0000    0     1.008   12.545349   -2.206639    2.468759
  82 C     6.0000    0    12.011   15.248472   -1.268641    8.251982
  83 H     1.0000    0     1.008   13.243089    0.117280   11.525914
  84 H     1.0000    0     1.008   16.619372   -2.618869    4.652116
  85 C     6.0000    0    12.011    6.758097   -8.215743   -5.684765
  86 C     6.0000    0    12.011    9.403820   -8.120911   -5.462191
  87 C     6.0000    0    12.011    5.713254  -10.163386   -7.160097
  88 C     6.0000    0    12.011   10.928434   -9.890103   -6.665376
  89 H     1.0000    0     1.008   10.293822   -6.614255   -4.366029
  90 C     6.0000    0    12.011    7.246667  -11.935369   -8.345896
  91 H     1.0000    0     1.008    3.663827  -10.329328   -7.344787
  92 C     6.0000    0    12.011    9.888073  -11.836621   -8.133748
  93 H     1.0000    0     1.008   12.981547   -9.758920   -6.469031
  94 H     1.0000    0     1.008    6.377106  -13.445572   -9.456842
  95 C     6.0000    0    12.011   -5.964038   -8.782593    5.644332
  96 C     6.0000    0    12.011   -5.483910   -9.418357    8.179411
  97 C     6.0000    0    12.011   -7.868264  -10.134562    4.375884
  98 C     6.0000    0    12.011   -6.848836  -11.312046    9.384098
  99 H     1.0000    0     1.008   -4.053151   -8.384363    9.249667
 100 C     6.0000    0    12.011   -9.216778  -12.035872    5.586180
 101 H     1.0000    0     1.008   -8.281041   -9.724385    2.394924
 102 C     6.0000    0    12.011   -8.739381  -12.670413    8.115928
 103 H     1.0000    0     1.008   -6.450389  -11.743164   11.365567
 104 H     1.0000    0     1.008  -10.676688  -13.062753    4.544440
 105 C     6.0000    0    12.011  -10.516250   -1.612282   -5.676433
 106 C     6.0000    0    12.011  -11.801417   -3.929589   -5.483207
 107 C     6.0000    0    12.011  -11.659540    0.315554   -7.104393
 108 C     6.0000    0    12.011  -14.117243   -4.296808   -6.668203
 109 H     1.0000    0     1.008  -10.962339   -5.492714   -4.427222
 110 C     6.0000    0    12.011  -13.982137   -0.058128   -8.272289
 111 H     1.0000    0     1.008  -10.744841    2.159604   -7.263739
 112 C     6.0000    0    12.011  -15.261825   -2.372923   -8.088247
 113 H     1.0000    0     1.008  -15.064568   -6.125417   -6.495089
 114 H     1.0000    0     1.008  -14.837549    1.488010   -9.344136
 115 C     6.0000    0    12.011  -10.155759  -14.747941    9.395095
 116 H     1.0000    0     1.008   -9.203399  -16.579242    9.120833
 117 H     1.0000    0     1.008  -10.286737  -14.447996   11.443800
 118 H     1.0000    0     1.008  -12.075129  -14.959528    8.635833
 119 C     6.0000    0    12.011  -17.725503   -2.788431   -9.398400
 120 H     1.0000    0     1.008  -18.832703   -1.038977   -9.537236
 121 H     1.0000    0     1.008  -17.430836   -3.459314  -11.347462
 122 H     1.0000    0     1.008  -18.879233   -4.223544   -8.442750
 123 C     6.0000    0    12.011   11.529550  -13.706144   -9.464257
 124 H     1.0000    0     1.008   11.921294  -13.099317  -11.417162
 125 H     1.0000    0     1.008   13.367038  -13.929659   -8.527735
 126 H     1.0000    0     1.008   10.627181  -15.570210   -9.597235
 127 C     6.0000    0    12.011   17.743682   -1.459547    9.554346
 128 H     1.0000    0     1.008   18.813095    0.318870    9.382842
 129 H     1.0000    0     1.008   17.530169   -1.828665   11.584904
 130 H     1.0000    0     1.008   18.933799   -2.948925    8.735745
 131 C     6.0000    0    12.011   -7.451491   16.094482    9.653917
 132 H     1.0000    0     1.008   -6.675095   16.182110   11.584042
 133 H     1.0000    0     1.008   -6.914784   17.865847    8.716558
 134 H     1.0000    0     1.008   -9.516791   16.051196    9.848516
 135 C     6.0000    0    12.011    6.171810   16.752065   -9.528156
 136 H     1.0000    0     1.008    5.423193   16.795576  -11.470696
 137 H     1.0000    0     1.008    5.480669   18.466591   -8.586328
 138 H     1.0000    0     1.008    8.236997   16.874865   -9.687360
* core charge reduced due to ECP

--------------------------------
INTERNAL COORDINATES (ANGSTROEM)
--------------------------------
 C      0   0   0     0.000000000000     0.00000000     0.00000000
 C      1   0   0     2.323311503360     0.00000000     0.00000000
 C      2   1   0     1.383346596385    91.85479493     0.00000000
 C      1   2   3     1.392314047937    90.68384748   359.91315561
 C      1   2   3     1.466764055624   145.58308335   179.27386129
 C      5   1   2     2.323710406756   145.58756360     0.30669894
 C      6   5   1     1.383419213411    91.84224318   179.86167186
 C      5   1   2     1.392383205377   123.71272049   180.11456657
 H      2   1   3     1.092046796965   147.60294135   179.45509109
 H      3   2   1     1.090513771847   118.44952657   178.63307417
 H      4   1   2     1.089661535350   118.86484519   178.79246514
 H      6   5   1     1.092131246130   147.45667692     0.95505823
 H      7   6   5     1.090592110771   118.45279890   181.17976955
 H      8   5   1     1.090013541196   118.98328740     1.51683413
 C      9   2   1     3.008306012793   123.44201157   326.28612096
 C     15   9   2     2.323966774670    66.57586342   119.47485070
 C     16  15   9     1.383270423517    91.86296684   110.43617535
 C     15   9   2     1.392507482485   108.87716342   201.73126252
 C     15   9   2     1.466956183814    98.49289876   331.96401080
 C     19  15   9     2.323951870479   145.51075108    59.02983437
 C     20  19  15     1.383181793263    91.86377073   180.25912857
 C     19  15   9     1.392756254328   123.81638678   239.25118743
 H     16  15   9     1.092080621012   147.52217244   291.26207325
 H     17  16  15     1.090428485902   118.46777199   181.11978291
 H     18  15   9     1.089784229034   119.00595001   115.87119720
 H     20  19  15     1.092033587422   147.51604602     1.25809564
 H     21  20  19     1.090484104943   118.51823333   181.22268695
 H     22  19  15     1.089754564686   118.98239552     1.29872635
 C     12   6   5     3.051744555524   122.55317882   323.76443264
 C     29  12   6     2.323760585160    66.42376789   120.87654271
 C     30  29  12     1.383131182687    91.85575976   112.41690848
 C     29  12   6     1.392850589237   110.57458012   202.25717840
 C     29  12   6     1.466849437580    97.79680148   332.91605235
 C     33  29  12     2.323469990722   145.54448023    59.33682307
 C     34  33  29     1.383178661939    91.87371056   179.37517791
 C     33  29  12     1.392257476293   123.80551025   238.57186962
 H     30  29  12     1.092045302449   147.50518756   293.25884559
 H     32  29  12     1.090003251553   118.95841368   116.31873072
 H     34  33  29     1.092145877250   147.52078324   358.89095330
 H     36  33  29     1.089534175538   118.92859440   359.16197369
 N     30  29  12     1.344976465595    31.08630662   292.47630359
 N      6   5   1     1.345083300202    31.08777845     0.19166423
 N     20  19  15     1.345063621015    31.07617275     0.61568747
 N      2   1   3     1.345139818593    31.09572402   180.36572095
 N     16  15   9     1.344992658620    31.07608285   290.97670878
 N     34  33  29     1.344995466738    31.09716022   359.75948606
 Ru    46  34  33     2.075600526002   125.60308125   179.86662254
 H     31  30  29     1.090413680425   118.44761435   181.05092897
 H     35  34  33     1.090433003373   118.38724300   178.68069093
 C      8   5   1     1.401926913971   121.00069147   180.24797957
 C      4   1   2     1.401983821094   121.02881598     0.15454521
 C     18  15   9     1.402174554961   121.02212088   294.72170693
 C     22  19  15     1.402061051222   121.00071967   179.93453283
 C     32  29  12     1.402328057789   121.00229079   294.82926060
 C     36  33  29     1.402236833194   121.08745800   180.46654317
 C     52  18  15     1.471294747969   121.73777444   179.45983433
 C     56  52  18     1.406132019845   121.16714476   335.84249602
 C     56  52  18     1.406205220584   121.16988298   155.83553774
 C     57  56  52     1.389999870955   121.05125940   180.23953149
 H     57  56  52     1.092591773424   119.94560100   358.77047769
 C     58  56  52     1.390097333117   121.00884908   180.17799616
 H     58  56  52     1.092652647786   120.01025285   358.43804358
 C     59  57  56     1.402907264257   121.34113048   359.67417316
 H     59  57  56     1.093633475681   119.37162557   179.45622780
 H     61  58  56     1.093617333958   119.35477787   179.01192596
 C     53  22  19     1.471208378011   121.87227934   179.78336520
 C     66  53  22     1.406032837783   121.35850378   335.12536842
 C     66  53  22     1.406181450229   120.96595286   155.09215442
 C     67  66  53     1.390216462323   121.01000278   180.18777463
 H     67  66  53     1.092763669591   120.03435915   358.65785483
 C     68  66  53     1.389987897732   121.03297953   180.21643871
 H     68  66  53     1.092656104726   119.92729994   358.44337617
 C     69  67  66     1.402951717251   121.36938005   359.70049337
 H     69  67  66     1.093631154350   119.34840224   179.47413969
 H     71  68  66     1.093644789987   119.34933022   179.02460025
 C     51   4   1     1.471214313317   121.72786690   179.85295895
 C     76  51   4     1.406146232082   121.11083485   204.14322887
 C     76  51   4     1.406106161968   121.22349936    23.96233930
 C     77  76  51     1.390074731866   121.01776223   179.71770392
 H     77  76  51     1.092608003270   119.98738762     1.51044616
 C     78  76  51     1.389983030533   121.04134133   179.86722257
 H     78  76  51     1.092687686313   119.96678730     1.24470668
 C     79  77  76     1.402990308036   121.36476157     0.51288106
 H     79  77  76     1.093620488399   119.34647504   180.97347239
 H     81  78  76     1.093612764716   119.36462669   180.52800468
 C     50   8   5     1.471157412868   121.74548105   179.51287478
 C     86  50   8     1.405897400448   121.24597665   336.43408967
 C     86  50   8     1.406219284997   121.09388197   156.43639335
 C     87  86  50     1.390250502442   121.03119708   180.14068701
 H     87  86  50     1.092682112053   119.98339155   358.71087786
 C     88  86  50     1.389772692228   121.03831602   180.24822450
 H     88  86  50     1.092439928703   119.92829929   358.57686033
 C     89  87  86     1.402808624109   121.35926954   359.73597659
 H     89  87  86     1.093623298894   119.35792480   179.52729710
 H     91  88  86     1.093625020333   119.34638476   179.05380948
 C     55  36  33     1.471550722160   121.76706019   179.97737095
 C     96  55  36     1.406192706562   121.11772852   202.50908367
 C     96  55  36     1.406343298575   121.29573729    22.36633377
 C     97  96  55     1.390070385773   121.07101246   179.73628068
 H     97  96  55     1.092422483843   119.99876113     1.37111956
 C     98  96  55     1.389862263330   121.07835654   179.89286648
 H     98  96  55     1.092572518234   120.00835028     1.19383304
 C     99  97  96     1.402826371490   121.37001485     0.47225727
 H     99  97  96     1.093598260857   119.33527316   180.91648340
 H    101  98  96     1.093624195704   119.34795036   180.45658855
 C     54  32  29     1.471430290769   121.89233987   180.23975961
 C    106  54  32     1.405949407453   121.41611518   336.40135374
 C    106  54  32     1.406331110597   120.95848694   156.19684860
 C    107 106  54     1.390247638599   121.03073097   179.92407740
 H    107 106  54     1.092531761621   120.06360123   358.44928106
 C    108 106  54     1.389840684516   121.07461831   180.45867240
 H    108 106  54     1.092540718861   119.92013619   358.72004674
 C    109 107 106     1.402861397562   121.38282969   359.72660328
 H    109 107 106     1.093644699359   119.33703521   179.53637123
 H    111 108 106     1.093635308407   119.35424911   178.99635176
 C    103  99  97     1.492853258851   121.23104308   178.39949297
 H    116 103  99     1.101893001006   110.99685370   269.87802288
 H    116 103  99     1.097875604648   111.89961038    28.86097286
 H    116 103  99     1.097992292192   111.93832716   150.93642376
 C    113 109 107     1.492885125595   121.25990411   178.84369753
 H    120 113 109     1.098059336934   111.89275535   149.66390724
 H    120 113 109     1.101877821820   111.01246764   268.53446578
 H    120 113 109     1.097823950408   111.93888424    27.62329668
 C     93  89  87     1.492975369700   121.29537987   178.83339844
 H    124  93  89     1.101850850548   111.01751055   266.73845338
 H    124  93  89     1.097758416359   111.95297408    25.92878970
 H    124  93  89     1.098178879132   111.86623968   147.96006844
 C     83  79  77     1.492867503750   121.19596783   178.37723942
 H    128  83  79     1.101887060193   111.00395086   271.10041098
 H    128  83  79     1.097963218902   111.88937506    30.02934097
 H    128  83  79     1.097929147231   111.94891208   152.08612951
 C     63  59  57     1.492894203803   121.22942162   178.76927365
 H    132  63  59     1.101890118263   110.99577569   269.64382379
 H    132  63  59     1.097890327385   111.93947823    28.67656299
 H    132  63  59     1.097989624480   111.88922896   150.74455026
 C     73  69  67     1.492923848143   121.24317388   178.78081033
 H    136  73  69     1.101881507300   111.00441370   269.43867471
 H    136  73  69     1.097875637709   111.94495348    28.48549231
 H    136  73  69     1.098017062617   111.88637432   150.54029778

---------------------------
INTERNAL COORDINATES (A.U.)
---------------------------
 C      0   0   0     0.000000000000     0.00000000     0.00000000
 C      1   0   0     4.390422465140     0.00000000     0.00000000
 C      2   1   0     2.614146215459    91.85479493     0.00000000
 C      1   2   3     2.631092243012    90.68384748   359.91315561
 C      1   2   3     2.771782368209   145.58308335   179.27386129
 C      5   1   2     4.391176283311   145.58756360     0.30669894
 C      6   5   1     2.614283441751    91.84224318   179.86167186
 C      5   1   2     2.631222931635   123.71272049   180.11456657
 H      2   1   3     2.063669371690   147.60294135   179.45509109
 H      3   2   1     2.060772374059   118.44952657   178.63307417
 H      4   1   2     2.059161880480   118.86484519   178.79246514
 H      6   5   1     2.063828957483   147.45667692     0.95505823
 H      7   6   5     2.060920413173   118.45279890   181.17976955
 H      8   5   1     2.059827075126   118.98328740     1.51683413
 C      9   2   1     5.684874491208   123.44201157   326.28612096
 C     15   9   2     4.391660748458    66.57586342   119.47485070
 C     16  15   9     2.614002269600    91.86296684   110.43617535
 C     15   9   2     2.631457781333   108.87716342   201.73126252
 C     15   9   2     2.772145437870    98.49289876   331.96401080
 C     19  15   9     4.391632583619   145.51075108    59.02983437
 C     20  19  15     2.613834782693    91.86377073   180.25912857
 C     19  15   9     2.631927891985   123.81638678   239.25118743
 H     16  15   9     2.063733289874   147.52217244   291.26207325
 H     17  16  15     2.060611206981   118.46777199   181.11978291
 H     18  15   9     2.059393737941   119.00595001   115.87119720
 H     20  19  15     2.063644409271   147.51604602     1.25809564
 H     21  20  19     2.060716311737   118.51823333   181.22268695
 H     22  19  15     2.059337680447   118.98239552     1.29872635
 C     12   6   5     5.766961440625   122.55317882   323.76443264
 C     29  12   6     4.391271106754    66.42376789   120.87654271
 C     30  29  12     2.613739142565    91.85575976   112.41690848
 C     29  12   6     2.632106159129   110.57458012   202.25717840
 C     29  12   6     2.771943716723    97.79680148   332.91605235
 C     33  29  12     4.390721962849   145.54448023    59.33682307
 C     34  33  29     2.613828865348    91.87371056   179.37517791
 C     33  29  12     2.630985338098   123.80551025   238.57186962
 H     30  29  12     2.063666547464   147.50518756   293.25884559
 H     32  29  12     2.059807630519   118.95841368   116.31873072
 H     34  33  29     2.063856606294   147.52078324   358.89095330
 H     36  33  29     2.058921205314   118.92859440   359.16197369
 N     30  29  12     2.541637176544    31.08630662   292.47630359
 N      6   5   1     2.541839064693    31.08777845     0.19166423
 N     20  19  15     2.541801876418    31.07617275     0.61568747
 N      2   1   3     2.541945868974    31.09572402   180.36572095
 N     16  15   9     2.541667776927    31.07608285   290.97670878
 N     34  33  29     2.541673083500    31.09716022   359.75948606
 Ru    46  34  33     3.922316557567   125.60308125   179.86662254
 H     31  30  29     2.060583228685   118.44761435   181.05092897
 H     35  34  33     2.060619743765   118.38724300   178.68069093
 C      8   5   1     2.649257927179   121.00069147   180.24797957
 C      4   1   2     2.649365466056   121.02881598     0.15454521
 C     18  15   9     2.649725900830   121.02212088   294.72170693
 C     22  19  15     2.649511409848   121.00071967   179.93453283
 C     32  29  12     2.650015979134   121.00229079   294.82926060
 C     36  33  29     2.649843589634   121.08745800   180.46654317
 C     52  18  15     2.780344135938   121.73777444   179.45983433
 C     56  52  18     2.657204425644   121.16714476   335.84249602
 C     56  52  18     2.657342754994   121.16988298   155.83553774
 C     57  56  52     2.626719082290   121.05125940   180.23953149
 H     57  56  52     2.064699227947   119.94560100   358.77047769
 C     58  56  52     2.626903259086   121.00884908   180.17799616
 H     58  56  52     2.064814263819   120.01025285   358.43804358
 C     59  57  56     2.651110520735   121.34113048   359.67417316
 H     59  57  56     2.066667759925   119.37162557   179.45622780
 H     61  58  56     2.066637256490   119.35477787   179.01192596
 C     53  22  19     2.780180920371   121.87227934   179.78336520
 C     66  53  22     2.657016998709   121.35850378   335.12536842
 C     66  53  22     2.657297835534   120.96595286   155.09215442
 C     67  66  53     2.627128380659   121.01000278   180.18777463
 H     67  66  53     2.065024064626   120.03435915   358.65785483
 C     68  66  53     2.626696456178   121.03297953   180.21643871
 H     68  66  53     2.064820796488   119.92729994   358.44337617
 C     69  67  66     2.651194524719   121.36938005   359.70049337
 H     69  67  66     2.066663373246   119.34840224   179.47413969
 H     71  68  66     2.066689140866   119.34933022   179.02460025
 C     51   4   1     2.780192136474   121.72786690   179.85295895
 C     76  51   4     2.657231282880   121.11083485   204.14322887
 C     76  51   4     2.657155561339   121.22349936    23.96233930
 C     77  76  51     2.626860548911   121.01776223   179.71770392
 H     77  76  51     2.064729897910   119.98738762     1.51044616
 C     78  76  51     2.626687258505   121.04134133   179.86722257
 H     78  76  51     2.064880477040   119.96678730     1.24470668
 C     79  77  76     2.651267450734   121.36476157     0.51288106
 H     79  77  76     2.066643217519   119.34647504   180.97347239
 H     81  78  76     2.066628621874   119.36462669   180.52800468
 C     50   8   5     2.780084610209   121.74548105   179.51287478
 C     86  50   8     2.656761059238   121.24597665   336.43408967
 C     86  50   8     2.657369332883   121.09388197   156.43639335
 C     87  86  50     2.627192707162   121.03119708   180.14068701
 H     87  86  50     2.064869943215   119.98339155   358.71087786
 C     88  86  50     2.626289776713   121.03831602   180.24822450
 H     88  86  50     2.064412283009   119.92829929   358.57686033
 C     89  87  86     2.650924117869   121.35926954   359.73597659
 H     89  87  86     2.066648528584   119.35792480   179.52729710
 H     91  88  86     2.066651781633   119.34638476   179.05380948
 C     55  36  33     2.780827857056   121.76706019   179.97737095
 C     96  55  36     2.657319106920   121.11772852   202.50908367
 C     96  55  36     2.657603684582   121.29573729    22.36633377
 C     97  96  55     2.626852335984   121.07101246   179.73628068
 H     97  96  55     2.064379317002   119.99876113     1.37111956
 C     98  96  55     2.626459041566   121.07835654   179.89286648
 H     98  96  55     2.064662840912   120.00835028     1.19383304
 C     99  97  96     2.650957655558   121.37001485     0.47225727
 H     99  97  96     2.066601213552   119.33527316   180.91648340
 H    101  98  96     2.066650223311   119.34795036   180.45658855
 C     54  32  29     2.780600274710   121.89233987   180.23975961
 C    106  54  32     2.656859338235   121.41611518   336.40135374
 C    106  54  32     2.657580652642   120.95848694   156.19684860
 C    107 106  54     2.627187295282   121.03073097   179.92407740
 H    107 106  54     2.064585822074   120.06360123   358.44928106
 C    108 106  54     2.626418263518   121.07461831   180.45867240
 H    108 106  54     2.064602748804   119.92013619   358.72004674
 C    109 107 106     2.651023845242   121.38282969   359.72660328
 H    109 107 106     2.066688969604   119.33703521   179.53637123
 H    111 108 106     2.066671223276   119.35424911   178.99635176
 C    103  99  97     2.821083817360   121.23104308   178.39949297
 H    116 103  99     2.082276000787   110.99685370   269.87802288
 H    116 103  99     2.074684221898   111.89961038    28.86097286
 H    116 103  99     2.074904729400   111.93832716   150.93642376
 C    113 109 107     2.821144036779   121.25990411   178.84369753
 H    120 113 109     2.075031425600   111.89275535   149.66390724
 H    120 113 109     2.082247316281   111.01246764   268.53446578
 H    120 113 109     2.074586609530   111.93888424    27.62329668
 C     93  89  87     2.821314573422   121.29537987   178.83339844
 H    124  93  89     2.082196347964   111.01751055   266.73845338
 H    124  93  89     2.074462768125   111.95297408    25.92878970
 H    124  93  89     2.075257327616   111.86623968   147.96006844
 C     83  79  77     2.821110736319   121.19596783   178.37723942
 H    128  83  79     2.082264774277   111.00395086   271.10041098
 H    128  83  79     2.074849788844   111.88937506    30.02934097
 H    128  83  79     2.074785402716   111.94891208   152.08612951
 C     63  59  57     2.821161192106   121.22942162   178.76927365
 H    132  63  59     2.082270553191   110.99577569   269.64382379
 H    132  63  59     2.074712043839   111.93947823    28.67656299
 H    132  63  59     2.074899688154   111.88922896   150.74455026
 C     73  69  67     2.821217211790   121.24317388   178.78081033
 H    136  73  69     2.082254280830   111.00441370   269.43867471
 H    136  73  69     2.074684284375   111.94495348    28.48549231
 H    136  73  69     2.074951538719   111.88637432   150.54029778

---------------------
BASIS SET INFORMATION
---------------------
There are 4 groups of distinct atoms

 Group   1 Type C   : 7s4p1d contracted to 3s2p1d pattern {511/31/1}
 Group   2 Type H   : 4s1p contracted to 2s1p pattern {31/1}
 Group   3 Type N   : 7s4p1d contracted to 3s2p1d pattern {511/31/1}
 Group   4 Type Ru  : 7s6p5d1f contracted to 5s3p2d1f pattern {31111/411/41/1}

Atom   0C    basis set group =>   1
Atom   1C    basis set group =>   1
Atom   2C    basis set group =>   1
Atom   3C    basis set group =>   1
Atom   4C    basis set group =>   1
Atom   5C    basis set group =>   1
Atom   6C    basis set group =>   1
Atom   7C    basis set group =>   1
Atom   8H    basis set group =>   2
Atom   9H    basis set group =>   2
Atom  10H    basis set group =>   2
Atom  11H    basis set group =>   2
Atom  12H    basis set group =>   2
Atom  13H    basis set group =>   2
Atom  14C    basis set group =>   1
Atom  15C    basis set group =>   1
Atom  16C    basis set group =>   1
Atom  17C    basis set group =>   1
Atom  18C    basis set group =>   1
Atom  19C    basis set group =>   1
Atom  20C    basis set group =>   1
Atom  21C    basis set group =>   1
Atom  22H    basis set group =>   2
Atom  23H    basis set group =>   2
Atom  24H    basis set group =>   2
Atom  25H    basis set group =>   2
Atom  26H    basis set group =>   2
Atom  27H    basis set group =>   2
Atom  28C    basis set group =>   1
Atom  29C    basis set group =>   1
Atom  30C    basis set group =>   1
Atom  31C    basis set group =>   1
Atom  32C    basis set group =>   1
Atom  33C    basis set group =>   1
Atom  34C    basis set group =>   1
Atom  35C    basis set group =>   1
Atom  36H    basis set group =>   2
Atom  37H    basis set group =>   2
Atom  38H    basis set group =>   2
Atom  39H    basis set group =>   2
Atom  40N    basis set group =>   3
Atom  41N    basis set group =>   3
Atom  42N    basis set group =>   3
Atom  43N    basis set group =>   3
Atom  44N    basis set group =>   3
Atom  45N    basis set group =>   3
Atom  46Ru   basis set group =>   4
Atom  47H    basis set group =>   2
Atom  48H    basis set group =>   2
Atom  49C    basis set group =>   1
Atom  50C    basis set group =>   1
Atom  51C    basis set group =>   1
Atom  52C    basis set group =>   1
Atom  53C    basis set group =>   1
Atom  54C    basis set group =>   1
Atom  55C    basis set group =>   1
Atom  56C    basis set group =>   1
Atom  57C    basis set group =>   1
Atom  58C    basis set group =>   1
Atom  59H    basis set group =>   2
Atom  60C    basis set group =>   1
Atom  61H    basis set group =>   2
Atom  62C    basis set group =>   1
Atom  63H    basis set group =>   2
Atom  64H    basis set group =>   2
Atom  65C    basis set group =>   1
Atom  66C    basis set group =>   1
Atom  67C    basis set group =>   1
Atom  68C    basis set group =>   1
Atom  69H    basis set group =>   2
Atom  70C    basis set group =>   1
Atom  71H    basis set group =>   2
Atom  72C    basis set group =>   1
Atom  73H    basis set group =>   2
Atom  74H    basis set group =>   2
Atom  75C    basis set group =>   1
Atom  76C    basis set group =>   1
Atom  77C    basis set group =>   1
Atom  78C    basis set group =>   1
Atom  79H    basis set group =>   2
Atom  80C    basis set group =>   1
Atom  81H    basis set group =>   2
Atom  82C    basis set group =>   1
Atom  83H    basis set group =>   2
Atom  84H    basis set group =>   2
Atom  85C    basis set group =>   1
Atom  86C    basis set group =>   1
Atom  87C    basis set group =>   1
Atom  88C    basis set group =>   1
Atom  89H    basis set group =>   2
Atom  90C    basis set group =>   1
Atom  91H    basis set group =>   2
Atom  92C    basis set group =>   1
Atom  93H    basis set group =>   2
Atom  94H    basis set group =>   2
Atom  95C    basis set group =>   1
Atom  96C    basis set group =>   1
Atom  97C    basis set group =>   1
Atom  98C    basis set group =>   1
Atom  99H    basis set group =>   2
Atom 100C    basis set group =>   1
Atom 101H    basis set group =>   2
Atom 102C    basis set group =>   1
Atom 103H    basis set group =>   2
Atom 104H    basis set group =>   2
Atom 105C    basis set group =>   1
Atom 106C    basis set group =>   1
Atom 107C    basis set group =>   1
Atom 108C    basis set group =>   1
Atom 109H    basis set group =>   2
Atom 110C    basis set group =>   1
Atom 111H    basis set group =>   2
Atom 112C    basis set group =>   1
Atom 113H    basis set group =>   2
Atom 114H    basis set group =>   2
Atom 115C    basis set group =>   1
Atom 116H    basis set group =>   2
Atom 117H    basis set group =>   2
Atom 118H    basis set group =>   2
Atom 119C    basis set group =>   1
Atom 120H    basis set group =>   2
Atom 121H    basis set group =>   2
Atom 122H    basis set group =>   2
Atom 123C    basis set group =>   1
Atom 124H    basis set group =>   2
Atom 125H    basis set group =>   2
Atom 126H    basis set group =>   2
Atom 127C    basis set group =>   1
Atom 128H    basis set group =>   2
Atom 129H    basis set group =>   2
Atom 130H    basis set group =>   2
Atom 131C    basis set group =>   1
Atom 132H    basis set group =>   2
Atom 133H    basis set group =>   2
Atom 134H    basis set group =>   2
Atom 135C    basis set group =>   1
Atom 136H    basis set group =>   2
Atom 137H    basis set group =>   2
Atom 138H    basis set group =>   2
---------------------------------
AUXILIARY/J BASIS SET INFORMATION
---------------------------------
There are 4 groups of distinct atoms

 Group   1 Type C   : 12s5p4d2f1g contracted to 6s4p3d1f1g pattern {711111/2111/211/2/1}
 Group   2 Type H   : 5s2p1d contracted to 3s1p1d pattern {311/2/1}
 Group   3 Type N   : 12s5p4d2f1g contracted to 6s4p3d1f1g pattern {711111/2111/211/2/1}
 Group   4 Type Ru  : 11s5p5d3f3g contracted to 8s5p5d2f3g pattern {41111111/11111/11111/21/111}

Atom   0C    basis set group =>   1
Atom   1C    basis set group =>   1
Atom   2C    basis set group =>   1
Atom   3C    basis set group =>   1
Atom   4C    basis set group =>   1
Atom   5C    basis set group =>   1
Atom   6C    basis set group =>   1
Atom   7C    basis set group =>   1
Atom   8H    basis set group =>   2
Atom   9H    basis set group =>   2
Atom  10H    basis set group =>   2
Atom  11H    basis set group =>   2
Atom  12H    basis set group =>   2
Atom  13H    basis set group =>   2
Atom  14C    basis set group =>   1
Atom  15C    basis set group =>   1
Atom  16C    basis set group =>   1
Atom  17C    basis set group =>   1
Atom  18C    basis set group =>   1
Atom  19C    basis set group =>   1
Atom  20C    basis set group =>   1
Atom  21C    basis set group =>   1
Atom  22H    basis set group =>   2
Atom  23H    basis set group =>   2
Atom  24H    basis set group =>   2
Atom  25H    basis set group =>   2
Atom  26H    basis set group =>   2
Atom  27H    basis set group =>   2
Atom  28C    basis set group =>   1
Atom  29C    basis set group =>   1
Atom  30C    basis set group =>   1
Atom  31C    basis set group =>   1
Atom  32C    basis set group =>   1
Atom  33C    basis set group =>   1
Atom  34C    basis set group =>   1
Atom  35C    basis set group =>   1
Atom  36H    basis set group =>   2
Atom  37H    basis set group =>   2
Atom  38H    basis set group =>   2
Atom  39H    basis set group =>   2
Atom  40N    basis set group =>   3
Atom  41N    basis set group =>   3
Atom  42N    basis set group =>   3
Atom  43N    basis set group =>   3
Atom  44N    basis set group =>   3
Atom  45N    basis set group =>   3
Atom  46Ru   basis set group =>   4
Atom  47H    basis set group =>   2
Atom  48H    basis set group =>   2
Atom  49C    basis set group =>   1
Atom  50C    basis set group =>   1
Atom  51C    basis set group =>   1
Atom  52C    basis set group =>   1
Atom  53C    basis set group =>   1
Atom  54C    basis set group =>   1
Atom  55C    basis set group =>   1
Atom  56C    basis set group =>   1
Atom  57C    basis set group =>   1
Atom  58C    basis set group =>   1
Atom  59H    basis set group =>   2
Atom  60C    basis set group =>   1
Atom  61H    basis set group =>   2
Atom  62C    basis set group =>   1
Atom  63H    basis set group =>   2
Atom  64H    basis set group =>   2
Atom  65C    basis set group =>   1
Atom  66C    basis set group =>   1
Atom  67C    basis set group =>   1
Atom  68C    basis set group =>   1
Atom  69H    basis set group =>   2
Atom  70C    basis set group =>   1
Atom  71H    basis set group =>   2
Atom  72C    basis set group =>   1
Atom  73H    basis set group =>   2
Atom  74H    basis set group =>   2
Atom  75C    basis set group =>   1
Atom  76C    basis set group =>   1
Atom  77C    basis set group =>   1
Atom  78C    basis set group =>   1
Atom  79H    basis set group =>   2
Atom  80C    basis set group =>   1
Atom  81H    basis set group =>   2
Atom  82C    basis set group =>   1
Atom  83H    basis set group =>   2
Atom  84H    basis set group =>   2
Atom  85C    basis set group =>   1
Atom  86C    basis set group =>   1
Atom  87C    basis set group =>   1
Atom  88C    basis set group =>   1
Atom  89H    basis set group =>   2
Atom  90C    basis set group =>   1
Atom  91H    basis set group =>   2
Atom  92C    basis set group =>   1
Atom  93H    basis set group =>   2
Atom  94H    basis set group =>   2
Atom  95C    basis set group =>   1
Atom  96C    basis set group =>   1
Atom  97C    basis set group =>   1
Atom  98C    basis set group =>   1
Atom  99H    basis set group =>   2
Atom 100C    basis set group =>   1
Atom 101H    basis set group =>   2
Atom 102C    basis set group =>   1
Atom 103H    basis set group =>   2
Atom 104H    basis set group =>   2
Atom 105C    basis set group =>   1
Atom 106C    basis set group =>   1
Atom 107C    basis set group =>   1
Atom 108C    basis set group =>   1
Atom 109H    basis set group =>   2
Atom 110C    basis set group =>   1
Atom 111H    basis set group =>   2
Atom 112C    basis set group =>   1
Atom 113H    basis set group =>   2
Atom 114H    basis set group =>   2
Atom 115C    basis set group =>   1
Atom 116H    basis set group =>   2
Atom 117H    basis set group =>   2
Atom 118H    basis set group =>   2
Atom 119C    basis set group =>   1
Atom 120H    basis set group =>   2
Atom 121H    basis set group =>   2
Atom 122H    basis set group =>   2
Atom 123C    basis set group =>   1
Atom 124H    basis set group =>   2
Atom 125H    basis set group =>   2
Atom 126H    basis set group =>   2
Atom 127C    basis set group =>   1
Atom 128H    basis set group =>   2
Atom 129H    basis set group =>   2
Atom 130H    basis set group =>   2
Atom 131C    basis set group =>   1
Atom 132H    basis set group =>   2
Atom 133H    basis set group =>   2
Atom 134H    basis set group =>   2
Atom 135C    basis set group =>   1
Atom 136H    basis set group =>   2
Atom 137H    basis set group =>   2
Atom 138H    basis set group =>   2
---------------------------------
AUXILIARY/C BASIS SET INFORMATION
---------------------------------
There are 4 groups of distinct atoms

 Group   1 Type C   : 8s6p5d3f contracted to 6s5p4d1f pattern {311111/21111/2111/3}
 Group   2 Type H   : 4s3p2d contracted to 3s2p1d pattern {211/21/2}
 Group   3 Type N   : 8s6p5d3f contracted to 6s5p4d1f pattern {311111/21111/2111/3}
 Group   4 Type Ru  : 8s7p6d5f3g1h contracted to 8s7p6d5f3g1h pattern {11111111/1111111/111111/11111/111/1}

Atom   0C    basis set group =>   1
Atom   1C    basis set group =>   1
Atom   2C    basis set group =>   1
Atom   3C    basis set group =>   1
Atom   4C    basis set group =>   1
Atom   5C    basis set group =>   1
Atom   6C    basis set group =>   1
Atom   7C    basis set group =>   1
Atom   8H    basis set group =>   2
Atom   9H    basis set group =>   2
Atom  10H    basis set group =>   2
Atom  11H    basis set group =>   2
Atom  12H    basis set group =>   2
Atom  13H    basis set group =>   2
Atom  14C    basis set group =>   1
Atom  15C    basis set group =>   1
Atom  16C    basis set group =>   1
Atom  17C    basis set group =>   1
Atom  18C    basis set group =>   1
Atom  19C    basis set group =>   1
Atom  20C    basis set group =>   1
Atom  21C    basis set group =>   1
Atom  22H    basis set group =>   2
Atom  23H    basis set group =>   2
Atom  24H    basis set group =>   2
Atom  25H    basis set group =>   2
Atom  26H    basis set group =>   2
Atom  27H    basis set group =>   2
Atom  28C    basis set group =>   1
Atom  29C    basis set group =>   1
Atom  30C    basis set group =>   1
Atom  31C    basis set group =>   1
Atom  32C    basis set group =>   1
Atom  33C    basis set group =>   1
Atom  34C    basis set group =>   1
Atom  35C    basis set group =>   1
Atom  36H    basis set group =>   2
Atom  37H    basis set group =>   2
Atom  38H    basis set group =>   2
Atom  39H    basis set group =>   2
Atom  40N    basis set group =>   3
Atom  41N    basis set group =>   3
Atom  42N    basis set group =>   3
Atom  43N    basis set group =>   3
Atom  44N    basis set group =>   3
Atom  45N    basis set group =>   3
Atom  46Ru   basis set group =>   4
Atom  47H    basis set group =>   2
Atom  48H    basis set group =>   2
Atom  49C    basis set group =>   1
Atom  50C    basis set group =>   1
Atom  51C    basis set group =>   1
Atom  52C    basis set group =>   1
Atom  53C    basis set group =>   1
Atom  54C    basis set group =>   1
Atom  55C    basis set group =>   1
Atom  56C    basis set group =>   1
Atom  57C    basis set group =>   1
Atom  58C    basis set group =>   1
Atom  59H    basis set group =>   2
Atom  60C    basis set group =>   1
Atom  61H    basis set group =>   2
Atom  62C    basis set group =>   1
Atom  63H    basis set group =>   2
Atom  64H    basis set group =>   2
Atom  65C    basis set group =>   1
Atom  66C    basis set group =>   1
Atom  67C    basis set group =>   1
Atom  68C    basis set group =>   1
Atom  69H    basis set group =>   2
Atom  70C    basis set group =>   1
Atom  71H    basis set group =>   2
Atom  72C    basis set group =>   1
Atom  73H    basis set group =>   2
Atom  74H    basis set group =>   2
Atom  75C    basis set group =>   1
Atom  76C    basis set group =>   1
Atom  77C    basis set group =>   1
Atom  78C    basis set group =>   1
Atom  79H    basis set group =>   2
Atom  80C    basis set group =>   1
Atom  81H    basis set group =>   2
Atom  82C    basis set group =>   1
Atom  83H    basis set group =>   2
Atom  84H    basis set group =>   2
Atom  85C    basis set group =>   1
Atom  86C    basis set group =>   1
Atom  87C    basis set group =>   1
Atom  88C    basis set group =>   1
Atom  89H    basis set group =>   2
Atom  90C    basis set group =>   1
Atom  91H    basis set group =>   2
Atom  92C    basis set group =>   1
Atom  93H    basis set group =>   2
Atom  94H    basis set group =>   2
Atom  95C    basis set group =>   1
Atom  96C    basis set group =>   1
Atom  97C    basis set group =>   1
Atom  98C    basis set group =>   1
Atom  99H    basis set group =>   2
Atom 100C    basis set group =>   1
Atom 101H    basis set group =>   2
Atom 102C    basis set group =>   1
Atom 103H    basis set group =>   2
Atom 104H    basis set group =>   2
Atom 105C    basis set group =>   1
Atom 106C    basis set group =>   1
Atom 107C    basis set group =>   1
Atom 108C    basis set group =>   1
Atom 109H    basis set group =>   2
Atom 110C    basis set group =>   1
Atom 111H    basis set group =>   2
Atom 112C    basis set group =>   1
Atom 113H    basis set group =>   2
Atom 114H    basis set group =>   2
Atom 115C    basis set group =>   1
Atom 116H    basis set group =>   2
Atom 117H    basis set group =>   2
Atom 118H    basis set group =>   2
Atom 119C    basis set group =>   1
Atom 120H    basis set group =>   2
Atom 121H    basis set group =>   2
Atom 122H    basis set group =>   2
Atom 123C    basis set group =>   1
Atom 124H    basis set group =>   2
Atom 125H    basis set group =>   2
Atom 126H    basis set group =>   2
Atom 127C    basis set group =>   1
Atom 128H    basis set group =>   2
Atom 129H    basis set group =>   2
Atom 130H    basis set group =>   2
Atom 131C    basis set group =>   1
Atom 132H    basis set group =>   2
Atom 133H    basis set group =>   2
Atom 134H    basis set group =>   2
Atom 135C    basis set group =>   1
Atom 136H    basis set group =>   2
Atom 137H    basis set group =>   2
Atom 138H    basis set group =>   2
-------------------------
ECP PARAMETER INFORMATION
-------------------------

 Group 1, Type Ru ECP Def2-ECP (replacing 28 core electrons, lmax=3)

Atom  46Ru   ECP group =>   1



           ************************************************************
           *        Program running with 8 parallel MPI-processes     *
           *              working on a common directory               *
           ************************************************************
------------------------------------------------------------------------------
                           ORCA GTO INTEGRAL CALCULATION
                           -- RI-GTO INTEGRALS CHOSEN --
------------------------------------------------------------------------------
------------------------------------------------------------------------------
                   ___                                                        
                  /   \      - P O W E R E D   B Y -                         
                 /     \                                                     
                 |  |  |   _    _      __       _____    __    __             
                 |  |  |  | |  | |    /  \     |  _  \  |  |  /  |          
                  \  \/   | |  | |   /    \    | | | |  |  | /  /          
                 / \  \   | |__| |  /  /\  \   | |_| |  |  |/  /          
                |  |  |   |  __  | /  /__\  \  |    /   |      \           
                |  |  |   | |  | | |   __   |  |    \   |  |\   \          
                \     /   | |  | | |  |  |  |  | |\  \  |  | \   \       
                 \___/    |_|  |_| |__|  |__|  |_| \__\ |__|  \__/        
                                                                              
                      - O R C A' S   B I G   F R I E N D -                    
                                      &                                       
                       - I N T E G R A L  F E E D E R -                       
                                                                              
 v1 FN, 2020, v2 2021                                                         
------------------------------------------------------------------------------


Reading SHARK input file Ru-arylbpy_3.SHARKINP.tmp ... ok
----------------------
SHARK INTEGRAL PACKAGE
----------------------

Number of atoms                             ...    139
Number of basis functions                   ...   1423
Number of shells                            ...    659
Maximum angular momentum                    ...      3
Integral batch strategy                     ... SHARK/LIBINT Hybrid
RI-J (if used) integral strategy            ... SPLIT-RIJ (Revised 2003 algorithm where possible)
Printlevel                                  ...      1
Contraction scheme used                     ... SEGMENTED contraction
Coulomb Range Separation                    ... NOT USED
Exchange Range Separation                   ... NOT USED
Finite Nucleus Model                        ... NOT USED
Auxiliary Coulomb fitting basis             ... AVAILABLE
   # of basis functions in Aux-J            ...   4571
   # of shells in Aux-J                     ...   1493
   Maximum angular momentum in Aux-J        ...      4
Auxiliary J/K fitting basis                 ... NOT available
Auxiliary Correlation fitting basis         ... AVAILABLE
   # of basis functions in Aux-C            ...   4716
   # of shells in Aux-C                     ...   1638
   Maximum angular momentum in Aux-C        ...      5
Auxiliary 'external' fitting basis          ... NOT available
Integral threshold                          ...     2.500000e-11
Primitive cut-off                           ...     2.500000e-12
Primitive pair pre-selection threshold      ...     2.500000e-12

Calculating pre-screening integrals         ... done (  0.3 sec) Dimension = 659
Organizing shell pair data                  ... done (  1.0 sec)
Shell pair information
Total number of shell pairs                 ...    217470
Shell pairs after pre-screening             ...     70310
Total number of primitive shell pairs       ...    789349
Primitive shell pairs kept                  ...    145693
          la=0 lb=0:  21495 shell pairs
          la=1 lb=0:  26571 shell pairs
          la=1 lb=1:   8434 shell pairs
          la=2 lb=0:   7920 shell pairs
          la=2 lb=1:   4951 shell pairs
          la=2 lb=2:    646 shell pairs
          la=3 lb=0:    161 shell pairs
          la=3 lb=1:     99 shell pairs
          la=3 lb=2:     32 shell pairs
          la=3 lb=3:      1 shell pairs

Calculating one electron integrals          ... done (  0.4 sec)
Calculating ECP integrals                   ... done (  3.6 sec)
Calculating RI/J V-Matrix + Cholesky decomp.... done (  1.6 sec)
Calculating RI/C V-Matrix + Cholesky decomp.... done (  1.6 sec)
Calculating Nuclear repulsion               ... done (  0.0 sec) ENN=  12382.033711829410 Eh

SHARK setup successfully completed in   9.5 seconds

Maximum memory used throughout the entire GTOINT-calculation: 165.9 MB


           ************************************************************
           *        Program running with 8 parallel MPI-processes     *
           *              working on a common directory               *
           ************************************************************
-------------------------------------------------------------------------------
                                 ORCA SCF
-------------------------------------------------------------------------------

------------
SCF SETTINGS
------------
Hamiltonian:
 Density Functional     Method          .... DFT(GTOs)
 Exchange Functional    Exchange        .... PBE
   PBE kappa parameter   XKappa         ....  0.804000
   PBE mue parameter    XMuePBE         ....  0.219520
 Correlation Functional Correlation     .... PBE
   PBE beta parameter  CBetaPBE         ....  0.066725
 LDA part of GGA corr.  LDAOpt          .... PW91-LDA
 Gradients option       PostSCFGGA      .... off
 Hybrid DFT is turned on
   Fraction HF Exchange ScalHFX         ....  0.690000
   Scaling of DF-GGA-X  ScalDFX         ....  0.310000
   Scaling of DF-GGA-C  ScalDFC         ....  0.670000
   Scaling of DF-LDA-C  ScalLDAC        ....  0.670000
   Perturbative correction              ....  0.330000
   Density functional embedding theory  .... OFF
 RI-approximation to the Coulomb term is turned on
   Number of AuxJ basis functions       .... 4571
   RIJ-COSX (HFX calculated with COS-X)).... on


General Settings:
 Integral files         IntName         .... Ru-arylbpy_3
 Hartree-Fock type      HFTyp           .... RHF
 Total Charge           Charge          ....    2
 Multiplicity           Mult            ....    1
 Number of Electrons    NEL             ....  548
 Basis Dimension        Dim             .... 1423
 Nuclear Repulsion      ENuc            ....  12382.0337118294 Eh

Convergence Acceleration:
 DIIS                   CNVDIIS         .... on
   Start iteration      DIISMaxIt       ....    12
   Startup error        DIISStart       ....  0.200000
   # of expansion vecs  DIISMaxEq       ....     5
   Bias factor          DIISBfac        ....   1.050
   Max. coefficient     DIISMaxC        ....  10.000
 Trust-Rad. Augm. Hess. CNVTRAH         .... auto
   Auto Start mean grad. ratio tolernc. ....  1.125000
   Auto Start start iteration           ....    20
   Auto Start num. interpolation iter.  ....    10
   Max. Number of Micro iterations      ....    16
   Max. Number of Macro iterations      .... Maxiter - #DIIS iter
   Number of Davidson start vectors     ....     2
   Converg. threshold I  (grad. norm)   ....   1.000e-05
   Converg. threshold II (energy diff.) ....   1.000e-08
   Grad. Scal. Fac. for Micro threshold ....   0.100
   Minimum threshold for Micro iter.    ....   0.010
[...]
   261a -> 293a  :     0.012576 
   264a -> 274a  :     0.014361 
   264a -> 286a  :     0.010576 
   268a -> 276a  :     0.019142 
   268a -> 287a  :     0.017782 
   269a -> 283a  :     0.013492 
   269a -> 289a  :     0.013420 
   272a -> 277a  :     0.091743 
   272a -> 286a  :     0.024762 

STATE 33:  E=   0.154882 au      4.215 eV    33992.8 cm**-1 <S**2> =   0.000000
   256a -> 274a  :     0.030788 
   256a -> 277a  :     0.016245 
   257a -> 275a  :     0.024173 
   257a -> 282a  :     0.013420 
   258a -> 275a  :     0.011749 
   258a -> 276a  :     0.027800 
   258a -> 281a  :     0.017290 
   259a -> 278a  :     0.016098 
   260a -> 278a  :     0.019047 
   260a -> 279a  :     0.020608 
   261a -> 280a  :     0.032289 
   262a -> 274a  :     0.033555 
   265a -> 281a  :     0.019535 
   266a -> 282a  :     0.018734 
   267a -> 277a  :     0.056050 
   269a -> 275a  :     0.011260 
   269a -> 288a  :     0.011613 
   271a -> 277a  :     0.244377 
   271a -> 286a  :     0.013247 

STATE 34:  E=   0.164647 au      4.480 eV    36135.9 cm**-1 <S**2> =   0.000000
   256a -> 276a  :     0.014591 
   256a -> 282a  :     0.016427 
   257a -> 274a  :     0.018026 
   257a -> 276a  :     0.013622 
   257a -> 277a  :     0.012103 
   259a -> 279a  :     0.038292 
   259a -> 280a  :     0.010645 
   260a -> 278a  :     0.015681 
   262a -> 276a  :     0.021359 
   266a -> 274a  :     0.019140 
   266a -> 277a  :     0.049682 
   267a -> 282a  :     0.013846 
   270a -> 274a  :     0.058141 
   270a -> 276a  :     0.012149 
   270a -> 277a  :     0.028174 
   270a -> 286a  :     0.010608 
   271a -> 281a  :     0.018694 
   271a -> 282a  :     0.077504 
   272a -> 277a  :     0.012377 
   272a -> 281a  :     0.020818 
   273a -> 277a  :     0.012616 
   273a -> 278a  :     0.014876 
   273a -> 282a  :     0.032784 

STATE 35:  E=   0.164739 au      4.483 eV    36156.0 cm**-1 <S**2> =   0.000000
   256a -> 275a  :     0.016746 
   256a -> 281a  :     0.011537 
   258a -> 274a  :     0.018184 
   258a -> 276a  :     0.013488 
   258a -> 277a  :     0.011944 
   260a -> 278a  :     0.021672 
   260a -> 279a  :     0.010838 
   261a -> 280a  :     0.033400 
   262a -> 275a  :     0.018491 
   265a -> 274a  :     0.018586 
   265a -> 277a  :     0.048736 
   267a -> 281a  :     0.013263 
   269a -> 274a  :     0.056497 
   269a -> 276a  :     0.010616 
   269a -> 277a  :     0.028100 
   269a -> 286a  :     0.014845 
   270a -> 275a  :     0.010664 
   271a -> 281a  :     0.085051 
   271a -> 282a  :     0.018502 
   272a -> 277a  :     0.011017 
   272a -> 278a  :     0.011648 
   272a -> 282a  :     0.025839 
   273a -> 277a  :     0.012815 
   273a -> 278a  :     0.011040 
   273a -> 281a  :     0.021381 

STATE 36:  E=   0.161841 au      4.404 eV    35520.1 cm**-1 <S**2> =   0.000000
   253a -> 274a  :     0.035820 
   254a -> 276a  :     0.028854 
   255a -> 275a  :     0.028073 
   256a -> 278a  :     0.045524 
   257a -> 279a  :     0.038269 
   258a -> 280a  :     0.047012 
   259a -> 274a  :     0.018210 
   259a -> 276a  :     0.013148 
   260a -> 275a  :     0.020772 
   261a -> 274a  :     0.013826 
   261a -> 275a  :     0.010849 
   261a -> 276a  :     0.013934 
   263a -> 275a  :     0.012764 
   264a -> 276a  :     0.014924 
   265a -> 280a  :     0.022848 
   266a -> 279a  :     0.018171 
   267a -> 278a  :     0.011786 
   268a -> 274a  :     0.080575 
   268a -> 277a  :     0.025676 
   268a -> 286a  :     0.017065 
   271a -> 289a  :     0.015982 
   272a -> 276a  :     0.014877 
   272a -> 281a  :     0.042585 
   273a -> 275a  :     0.014373 
   273a -> 282a  :     0.029092 

STATE 37:  E=   0.146204 au      3.978 eV    32088.1 cm**-1 <S**2> =   0.000000
   262a -> 275a  :     0.011381 
   262a -> 282a  :     0.013002 
   263a -> 278a  :     0.112388 
   265a -> 277a  :     0.011617 
   265a -> 278a  :     0.011749 
   265a -> 282a  :     0.015090 
   266a -> 277a  :     0.049502 
   266a -> 281a  :     0.015041 
   267a -> 282a  :     0.018142 
   269a -> 275a  :     0.011345 
   270a -> 274a  :     0.034939 
   271a -> 282a  :     0.010758 
   273a -> 278a  :     0.407228 
   273a -> 279a  :     0.012411 
   273a -> 289a  :     0.018961 

STATE 38:  E=   0.146294 au      3.981 eV    32107.8 cm**-1 <S**2> =   0.000000
   262a -> 276a  :     0.013032 
   262a -> 281a  :     0.014995 
   264a -> 278a  :     0.078219 
   264a -> 279a  :     0.027767 
   265a -> 277a  :     0.047637 
   265a -> 281a  :     0.015145 
   266a -> 277a  :     0.011344 
   266a -> 282a  :     0.015757 
   267a -> 281a  :     0.016701 
   269a -> 274a  :     0.033892 
   269a -> 276a  :     0.010083 
   270a -> 275a  :     0.010365 
   271a -> 281a  :     0.011594 
   272a -> 278a  :     0.301562 
   272a -> 279a  :     0.086336 
   272a -> 280a  :     0.034730 
   272a -> 289a  :     0.020283 
   272a -> 295a  :     0.010184 
   273a -> 280a  :     0.010530 

STATE 39:  E=   0.133786 au      3.641 eV    29362.7 cm**-1 <S**2> =   0.000000
   263a -> 277a  :     0.082249 
   264a -> 277a  :     0.014356 
   266a -> 278a  :     0.040625 
   267a -> 279a  :     0.034278 
   271a -> 278a  :     0.012075 
   271a -> 279a  :     0.098865 
   271a -> 281a  :     0.053216 
   272a -> 277a  :     0.017464 
   272a -> 278a  :     0.026791 
   272a -> 280a  :     0.013586 
   273a -> 277a  :     0.343222 
   273a -> 279a  :     0.031749 
   273a -> 280a  :     0.015165 

STATE 40:  E=   0.133852 au      3.642 eV    29377.1 cm**-1 <S**2> =   0.000000
   263a -> 277a  :     0.014732 
   264a -> 277a  :     0.080529 
   265a -> 278a  :     0.022098 
   265a -> 280a  :     0.023025 
   266a -> 279a  :     0.018260 
   267a -> 280a  :     0.033211 
   271a -> 280a  :     0.106359 
   271a -> 282a  :     0.055408 
   272a -> 277a  :     0.352901 
   272a -> 279a  :     0.023554 
   272a -> 280a  :     0.015989 
   273a -> 277a  :     0.016761 
   273a -> 279a  :     0.018981 
   273a -> 280a  :     0.021300 


-------------------------
TD-DFT-EXCITATION SPECTRA
-------------------------

Center of mass = ( -0.0004, -0.0006, -0.0011)
Calculating the Dipole integrals                  ... done
Transforming integrals                            ... done
Calculating the Linear Momentum integrals         ... done
Transforming integrals                            ... done
Calculating angular momentum integrals            ... done
Transforming integrals                            ... done

-----------------------------------------------------------------------------
         ABSORPTION SPECTRUM VIA TRANSITION ELECTRIC DIPOLE MOMENTS
-----------------------------------------------------------------------------
State   Energy    Wavelength  fosc         T2        TX        TY        TZ  
        (cm-1)      (nm)                 (au**2)    (au)      (au)      (au) 
-----------------------------------------------------------------------------
   1   30732.5    325.4   0.002428253   0.02601  -0.01217   0.16073   0.00545
   2   30807.4    324.6   0.003369092   0.03600   0.18842   0.02240  -0.00033
   3   32676.6    306.0   0.000077247   0.00078  -0.02346  -0.01146   0.00983
   4   21591.8    463.1   0.268760161   4.09780  -0.11770  -2.02060   0.03360
   5   21546.2    464.1   0.335634556   5.12827  -2.24471  -0.29922   0.00098
   6   22039.2    453.7   0.396515717   5.92297   1.94430  -1.46314  -0.04313
   7   22095.8    452.6   0.308715333   4.59964   1.03339   1.87879  -0.04351
   8   22164.9    451.2   0.061071979   0.90709   0.13447   0.07953   0.93951
   9   19622.8    509.6   0.015794307   0.26498   0.08305   0.08828  -0.50029
  10   21141.9    473.0   0.028478433   0.44345   0.61917   0.22901   0.08738
  11   21194.1    471.8   0.029167805   0.45307   0.24785  -0.62388  -0.04919
  12   23881.9    418.7   0.000023486   0.00032  -0.00429  -0.00091  -0.01745
  13   33524.7    298.3   0.460352567   4.52065  -0.48440   2.06286  -0.17497
  14   33537.1    298.2   0.440012292   4.31931   2.00799   0.46237   0.27111
  15   33502.9    298.5   1.352324930  13.28843   0.17390  -0.03783  -3.64098
  16   36526.8    273.8   0.014743841   0.13288  -0.34002  -0.11340  -0.06643
  17   36548.7    273.6   0.011506346   0.10364  -0.11111   0.30214  -0.00303
  18   32482.8    307.9   0.082862356   0.83981   0.19758  -0.52100   0.72755
  19   32378.6    308.8   0.024394265   0.24803   0.34160   0.25384   0.25866
  20   35678.3    280.3   0.136345802   1.25809   0.14722  -0.19171  -1.09529
  21   33793.4    295.9   0.305381164   2.97499  -0.11223   0.07176   1.71966
  22   32586.5    306.9   0.793577825   8.01729   2.50976   1.31013   0.04432
  23   32581.2    306.9   0.774573434   7.82656   1.31213  -2.47071   0.02112
  24   35959.3    278.1   0.002067154   0.01893   0.07441   0.11571   0.00028
  25   33144.4    301.7   0.016257649   0.16148   0.36072   0.17208   0.04187
  26   33186.7    301.3   0.011433093   0.11342   0.15208  -0.29571   0.05333
  27   35162.0    284.4   0.013462538   0.12605  -0.11631  -0.30893   0.13069
  28   35669.9    280.3   0.206293018   1.90396  -0.39841   0.65797  -1.14556
  29   35432.0    282.2   0.262723897   2.44107  -0.01111   0.63669   1.42673
  30   35987.3    277.9   0.128882976   1.17902  -0.92925  -0.22059   0.51658
  31   35257.4    283.6   0.009472484   0.08845   0.08487   0.20611  -0.19689
  32   35307.5    283.2   0.001832455   0.01709  -0.08984   0.03271  -0.08914
  33   33992.8    294.2   0.169617372   1.64270   0.09780   0.00785   1.27792
  34   36135.9    276.7   0.136136658   1.24026  -0.36940  -1.05051  -0.01533
  35   36156.0    276.6   0.120329479   1.09564  -0.96044   0.40218   0.10700
  36   35520.1    281.5   0.002671689   0.02476  -0.03014  -0.11677   0.10109
  37   32088.1    311.6   0.000057885   0.00059  -0.01566   0.00441  -0.01815
  38   32107.8    311.5   0.000047493   0.00049  -0.00220  -0.01534   0.01571
  39   29362.7    340.6   0.027086820   0.30369  -0.55017  -0.03143   0.00436
  40   29377.1    340.4   0.025340169   0.28397  -0.04294   0.52835  -0.05455

-----------------------------------------------------------------------------
         ABSORPTION SPECTRUM VIA TRANSITION VELOCITY DIPOLE MOMENTS
-----------------------------------------------------------------------------
State   Energy    Wavelength   fosc        P2         PX        PY        PZ  
        (cm-1)      (nm)                 (au**2)     (au)      (au)      (au) 
-----------------------------------------------------------------------------
   1   30732.5    325.4   0.002296185   0.00048   0.00176  -0.02188  -0.00072
   2   30807.4    324.6   0.003133949   0.00066  -0.02549  -0.00317   0.00003
   3   32676.6    306.0   0.000067902   0.00002   0.00321   0.00147  -0.00163
   4   21591.8    463.1   0.606753893   0.08954   0.01798   0.29864  -0.00512
   5   21546.2    464.1   0.763228680   0.11239   0.33233   0.04410   0.00004
   6   22039.2    453.7   0.879692909   0.13251  -0.29087   0.21877   0.00638
   7   22095.8    452.6   0.683297778   0.10319  -0.15475  -0.28142   0.00660
   8   22164.9    451.2   0.130601064   0.01978  -0.01994  -0.01195  -0.13872
   9   19622.8    509.6   0.046548542   0.00624  -0.01306  -0.01382   0.07669
  10   21141.9    473.0   0.074817580   0.01081  -0.09674  -0.03571  -0.01331
  11   21194.1    471.8   0.076854264   0.01113  -0.03866   0.09788   0.00760
  12   23881.9    418.7   0.000069154   0.00001   0.00033   0.00015   0.00334
  13   33524.7    298.3   0.528758441   0.12115   0.07943  -0.33767   0.02864
  14   33537.1    298.2   0.505579172   0.11588  -0.32890  -0.07574  -0.04439
  15   33502.9    298.5   1.570474083   0.35960  -0.02858   0.00617   0.59895
  16   36526.8    273.8   0.013889727   0.00347   0.05478   0.01845   0.01122
  17   36548.7    273.6   0.010725548   0.00268   0.01818  -0.04846   0.00039
  18   32482.8    307.9   0.120437966   0.02674  -0.03653   0.09395  -0.12875
  19   32378.6    308.8   0.037149840   0.00822  -0.06304  -0.04652  -0.04564
  20   35678.3    280.3   0.161595537   0.03940  -0.02623   0.03473   0.19368
  21   33793.4    295.9   0.402594186   0.09298   0.01991  -0.01264  -0.30402
  22   32586.5    306.9   1.080826519   0.24071  -0.43440  -0.22790  -0.00822
  23   32581.2    306.9   1.052307334   0.23432  -0.22757   0.42723  -0.00315
  24   35959.3    278.1   0.002502660   0.00062  -0.01371  -0.02065   0.00065
  25   33144.4    301.7   0.027739075   0.00628  -0.07198  -0.03243  -0.00710
  26   33186.7    301.3   0.020782648   0.00471  -0.02982   0.06084  -0.01110
  27   35162.0    284.4   0.018727809   0.00450   0.02110   0.05919  -0.02348
  28   35669.9    280.3   0.286603034   0.06987   0.07585  -0.12531   0.22003
  29   35432.0    282.2   0.372518134   0.09021   0.00117  -0.12201  -0.27445
  30   35987.3    277.9   0.174407890   0.04290   0.17571   0.04229  -0.10116
  31   35257.4    283.6   0.013423698   0.00323  -0.01008  -0.03987   0.03929
  32   35307.5    283.2   0.002575564   0.00062   0.01715   0.00001   0.01809
  33   33992.8    294.2   0.281788134   0.06547  -0.01861  -0.00060  -0.25518
  34   36135.9    276.7   0.193090636   0.04769   0.07211   0.20611   0.00286
  35   36156.0    276.6   0.168948203   0.04175   0.18715  -0.07897  -0.02210
  36   35520.1    281.5   0.004106637   0.00100   0.00631   0.02282  -0.02089
  37   32088.1    311.6   0.000076865   0.00002   0.00223   0.00138   0.00316
  38   32107.8    311.5   0.000114830   0.00003  -0.00246   0.00224  -0.00376
  39   29362.7    340.6   0.075759297   0.01520   0.12311   0.00684  -0.00000
  40   29377.1    340.4   0.070701978   0.01420   0.00960  -0.11825   0.01092

-------------------------------------------------------------------
                             CD SPECTRUM
-------------------------------------------------------------------
State  Energy     Wavelength     R         MX        MY        MZ   
       (cm-1)       (nm)     (1e40*cgs)   (au)      (au)      (au)  
-------------------------------------------------------------------
   1   30732.5    325.4     61.86067  -0.20566   0.80082  -0.00107
   2   30807.4    324.6     73.91439   0.80753   0.20696   0.02076
   3   32676.6    306.0      4.33335  -0.02153  -0.00287   0.88050
   4   21591.8    463.1    353.36741   0.12936  -0.37878  -0.01827
   5   21546.2    464.1    386.57487  -0.35807  -0.05417  -0.01257
   6   22039.2    453.7    -267.16243  -0.27692   0.01875   0.01900
   7   22095.8    452.6    -324.98045  -0.10905  -0.30609   0.03553
   8   22164.9    451.2    -188.26917  -0.02426   0.00265  -0.42180
   9   19622.8    509.6    -60.52046  -0.01263  -0.01609   0.25166
  10   21141.9    473.0    -34.18908  -0.09722  -0.03965  -0.03715
  11   21194.1    471.8    -33.29053  -0.03885   0.09725   0.00634
  12   23881.9    418.7     -0.26738   0.00115  -0.01199   0.03284
  13   33524.7    298.3    -953.47738   0.17984  -0.94342  -0.06183
  14   33537.1    298.2    -946.70742  -0.96319  -0.21822   0.09923
  15   33502.9    298.5    1595.77457  -0.10243   0.01006  -0.93464
  16   36526.8    273.8      5.37668  -0.02872  -0.00303  -0.01949
  17   36548.7    273.6      1.99173   0.00077   0.01422  -0.00487
  18   32482.8    307.9     35.16321   0.12522  -0.11421  -0.01328
  19   32378.6    308.8     26.38354   0.08601   0.09784   0.00674
  20   35678.3    280.3    -11.41840   0.05515  -0.07734   0.04306
  21   33793.4    295.9    -31.97501  -0.02590   0.03257  -0.04249
  22   32586.5    306.9    137.58303   0.07765   0.07388   0.00313
  23   32581.2    306.9    174.67717   0.04921  -0.12362   0.02493
  24   35959.3    278.1      3.06316   0.01010   0.04965   0.00300
  25   33144.4    301.7    -17.23180  -0.09885  -0.00556   0.00153
  26   33186.7    301.3     -6.62287  -0.02766   0.04050   0.04003
  27   35162.0    284.4    -21.83101  -0.00371   0.13163  -0.04647
  28   35669.9    280.3     26.82533   0.24058  -0.34657  -0.33239
  29   35432.0    282.2    147.23555   0.02324  -0.37704   0.38733
  30   35987.3    277.9    -167.91409   0.44502   0.16845   0.18299
  31   35257.4    283.6      3.21444  -0.09782   0.10058   0.02849
  32   35307.5    283.2      2.53241   0.00309  -0.00872  -0.06657
  33   33992.8    294.2    -274.59035   0.06878   0.10326  -0.46167
  34   36135.9    276.7    157.44447   0.10818  -0.35576  -0.01248
  35   36156.0    276.6    125.11506  -0.27046   0.05686  -0.16116
  36   35520.1    281.5     -1.65372  -0.02600  -0.10454  -0.16321
  37   32088.1    311.6     -0.50898   0.01555  -0.18694   0.00062
  38   32107.8    311.5     -1.02605   0.22949   0.05521  -0.05248
  39   29362.7    340.6    -25.36144   0.09348   0.07871   0.02485
  40   29377.1    340.4    -43.24644   0.08277  -0.16267   0.04088

Total run time:   376806.621 sec

           *** ORCA-CIS/TD-DFT FINISHED WITHOUT ERROR ***

Maximum memory used throughout the entire CIS-calculation: 10632.8 MB

-----------------------
CIS/TD-DFT TOTAL ENERGY
-----------------------

    E(SCF)  =  -3191.942303177 Eh
    DE(CIS) =      0.140027458 Eh (Root  1)
    ----------------------------- ---------
    E(tot)  =  -3191.802275718 Eh


-------------------------   --------------------
FINAL SINGLE POINT ENERGY     -3191.802275718318
-------------------------   --------------------


                            ***************************************
                            *     ORCA property calculations      *
                            ***************************************


  WARNING: The energy has been calculated at the MP2 level but the densities
           used in the property calculations are still SCF densities
           MP2 response densities have not been calculated 
           use %mp2 Density relaxed end
           or  %mp2 Density unrelaxed end

                                    ---------------------
                                    Active property flags
                                    ---------------------
   (+) Dipole Moment


------------------------------------------------------------------------------
                       ORCA ELECTRIC PROPERTIES CALCULATION
------------------------------------------------------------------------------

Dipole Moment Calculation                       ... on
Quadrupole Moment Calculation                   ... off
Polarizability Calculation                      ... off
GBWName                                         ... Ru-arylbpy_3.gbw
Electron density                                ... Ru-arylbpy_3.scfp
The origin for moment calculation is the CENTER OF MASS  = (-0.000384, -0.000598 -0.001119)

-------------
DIPOLE MOMENT
-------------
                                X             Y             Z
Electronic contribution:     -0.25530      -0.75380      -1.94876
Nuclear contribution   :      0.28776       0.74907       1.88766
                        -----------------------------------------
Total Dipole Moment    :      0.03246      -0.00474      -0.06110
                        -----------------------------------------
Magnitude (a.u.)       :      0.06935
Magnitude (Debye)      :      0.17627



--------------------
Rotational spectrum 
--------------------
 
Rotational constants in cm-1:     0.000603     0.000600     0.000477 
Rotational constants in MHz :    18.071821    17.997093    14.311825 

 Dipole components along the rotational axes: 
x,y,z [a.u.] :     0.032599    -0.003452    -0.061110 
x,y,z [Debye]:     0.082861    -0.008774    -0.155329 

 

Timings for individual modules:

Sum of individual times         ...   383562.620 sec (=6392.710 min)
GTO integral calculation        ...       10.452 sec (=   0.174 min)   0.0 %
SCF iterations                  ...     2451.439 sec (=  40.857 min)   0.6 %
MP2 module                      ...     4292.145 sec (=  71.536 min)   1.1 %
CIS module                      ...   376808.584 sec (=6280.143 min)  98.2 %
                             ****ORCA TERMINATED NORMALLY****
TOTAL RUN TIME: 4 days 10 hours 32 minutes 51 seconds 487 msec
