
                                 *****************
                                 * O   R   C   A *
                                 *****************

                                            #,                                       
                                            ###                                      
                                            ####                                     
                                            #####                                    
                                            ######                                   
                                           ########,                                 
                                     ,,################,,,,,                         
                               ,,#################################,,                 
                          ,,##########################################,,             
                       ,#########################################, ''#####,          
                    ,#############################################,,   '####,        
                  ,##################################################,,,,####,       
                ,###########''''           ''''###############################       
              ,#####''   ,,,,##########,,,,          '''####'''          '####       
            ,##' ,,,,###########################,,,                        '##       
           ' ,,###''''                  '''############,,,                           
         ,,##''                                '''############,,,,        ,,,,,,###''
      ,#''                                            '''#######################'''  
     '                                                          ''''####''''         
             ,#######,   #######,   ,#######,      ##                                
            ,#'     '#,  ##    ##  ,#'     '#,    #''#        ######   ,####,        
            ##       ##  ##   ,#'  ##            #'  '#       #        #'  '#        
            ##       ##  #######   ##           ,######,      #####,   #    #        
            '#,     ,#'  ##    ##  '#,     ,#' ,#      #,         ##   #,  ,#        
             '#######'   ##     ##  '#######'  #'      '#     #####' # '####'        



                  #######################################################
                  #                        -***-                        #
                  #          Department of theory and spectroscopy      #
                  #    Directorship and core code : Frank Neese         #
                  #        Max Planck Institute fuer Kohlenforschung    #
                  #                Kaiser Wilhelm Platz 1               #
                  #                 D-45470 Muelheim/Ruhr               #
                  #                      Germany                        #
                  #                                                     #
                  #                  All rights reserved                #
                  #                        -***-                        #
                  #######################################################


                         Program Version 5.0.4 -  RELEASE  -


 With contributions from (in alphabetic order):
   Daniel Aravena         : Magnetic Suceptibility
   Michael Atanasov       : Ab Initio Ligand Field Theory (pilot matlab implementation)
   Alexander A. Auer      : GIAO ZORA, VPT2 properties, NMR spectrum
   Ute Becker             : Parallelization
   Giovanni Bistoni       : ED, misc. LED, open-shell LED, HFLD
   Martin Brehm           : Molecular dynamics
   Dmytro Bykov           : SCF Hessian
   Vijay G. Chilkuri      : MRCI spin determinant printing, contributions to CSF-ICE
   Dipayan Datta          : RHF DLPNO-CCSD density
   Achintya Kumar Dutta   : EOM-CC, STEOM-CC
   Dmitry Ganyushin       : Spin-Orbit,Spin-Spin,Magnetic field MRCI
   Miquel Garcia          : C-PCM and meta-GGA Hessian, CC/C-PCM, Gaussian charge scheme
   Yang Guo               : DLPNO-NEVPT2, F12-NEVPT2, CIM, IAO-localization
   Andreas Hansen         : Spin unrestricted coupled pair/coupled cluster methods
   Benjamin Helmich-Paris : MC-RPA, TRAH-SCF, COSX integrals
   Lee Huntington         : MR-EOM, pCC
   Robert Izsak           : Overlap fitted RIJCOSX, COSX-SCS-MP3, EOM
   Marcus Kettner         : VPT2
   Christian Kollmar      : KDIIS, OOCD, Brueckner-CCSD(T), CCSD density, CASPT2, CASPT2-K
   Simone Kossmann        : Meta GGA functionals, TD-DFT gradient, OOMP2, MP2 Hessian
   Martin Krupicka        : Initial AUTO-CI
   Lucas Lang             : DCDCAS
   Marvin Lechner         : AUTO-CI (C++ implementation), FIC-MRCC
   Dagmar Lenk            : GEPOL surface, SMD
   Dimitrios Liakos       : Extrapolation schemes; Compound Job, initial MDCI parallelization
   Dimitrios Manganas     : Further ROCIS development; embedding schemes
   Dimitrios Pantazis     : SARC Basis sets
   Anastasios Papadopoulos: AUTO-CI, single reference methods and gradients
   Taras Petrenko         : DFT Hessian,TD-DFT gradient, ASA, ECA, R-Raman, ABS, FL, XAS/XES, NRVS
   Peter Pinski           : DLPNO-MP2, DLPNO-MP2 Gradient
   Christoph Reimann      : Effective Core Potentials
   Marius Retegan         : Local ZFS, SOC
   Christoph Riplinger    : Optimizer, TS searches, QM/MM, DLPNO-CCSD(T), (RO)-DLPNO pert. Triples
   Tobias Risthaus        : Range-separated hybrids, TD-DFT gradient, RPA, STAB
   Michael Roemelt        : Original ROCIS implementation
   Masaaki Saitow         : Open-shell DLPNO-CCSD energy and density
   Barbara Sandhoefer     : DKH picture change effects
   Avijit Sen             : IP-ROCIS
   Kantharuban Sivalingam : CASSCF convergence, NEVPT2, FIC-MRCI
   Bernardo de Souza      : ESD, SOC TD-DFT
   Georgi Stoychev        : AutoAux, RI-MP2 NMR, DLPNO-MP2 response
   Willem Van den Heuvel  : Paramagnetic NMR
   Boris Wezisla          : Elementary symmetry handling
   Frank Wennmohs         : Technical directorship


 We gratefully acknowledge several colleagues who have allowed us to
 interface, adapt or use parts of their codes:
   Stefan Grimme, W. Hujo, H. Kruse, P. Pracht,  : VdW corrections, initial TS optimization,
                  C. Bannwarth, S. Ehlert          DFT functionals, gCP, sTDA/sTD-DF
   Ed Valeev, F. Pavosevic, A. Kumar             : LibInt (2-el integral package), F12 methods
   Garnet Chan, S. Sharma, J. Yang, R. Olivares  : DMRG
   Ulf Ekstrom                                   : XCFun DFT Library
   Mihaly Kallay                                 : mrcc  (arbitrary order and MRCC methods)
   Jiri Pittner, Ondrej Demel                    : Mk-CCSD
   Frank Weinhold                                : gennbo (NPA and NBO analysis)
   Christopher J. Cramer and Donald G. Truhlar   : smd solvation model
   Lars Goerigk                                  : TD-DFT with DH, B97 family of functionals
   V. Asgeirsson, H. Jonsson                     : NEB implementation
   FAccTs GmbH                                   : IRC, NEB, NEB-TS, DLPNO-Multilevel, CI-OPT
                                                   MM, QMMM, 2- and 3-layer-ONIOM, Crystal-QMMM,
                                                   LR-CPCM, SF, NACMEs, symmetry and pop. for TD-DFT,
                                                   nearIR, NL-DFT gradient (VV10), updates on ESD,
                                                   ML-optimized integration grids
   S Lehtola, MJT Oliveira, MAL Marques          : LibXC Library
   Liviu Ungur et al                             : ANISO software


 Your calculation uses the libint2 library for the computation of 2-el integrals
 For citations please refer to: http://libint.valeyev.net

 Your ORCA version has been built with support for libXC version: 5.1.0
 For citations please refer to: https://tddft.org/programs/libxc/

 This ORCA versions uses:
   CBLAS   interface :  Fast vector & matrix operations
   LAPACKE interface :  Fast linear algebra routines
   SCALAPACK package :  Parallel linear algebra routines
   Shared memory     :  Shared parallel matrices
   BLAS/LAPACK       :  OpenBLAS 0.3.15  USE64BITINT DYNAMIC_ARCH NO_AFFINITY Zen SINGLE_THREADED
        Core in use  :  Zen
   Copyright (c) 2011-2014, The OpenBLAS Project


Your calculation utilizes the atom-pairwise dispersion correction
with the zero-damping scheme (D30)
Cite in your paper:
S.Grimme, J.Antony, S.Ehrlich and H.Krieg, J.Chem.Phys., 132, (2010), 154104 
   

Your calculation utilizes the SMD solvation module
Please cite in your paper:
A.V. Marenich, C.J. Cramer, D.G. Truhlar J. Phys. Chem. B, 113, (2009), 6378 

XCFun DFT library Copyright 2009-2010 Ulf Ekstrom and contributors.
See http://admol.org/xcfun for more information.
This is free software; see the source code for copying conditions.
There is ABSOLUTELY NO WARRANTY; not even for MERCHANTABILITY or FITNESS FOR A PARTICULAR PURPOSE.
For details see the documentation.
Scientific users of this library should cite U. Ekstrom, L. Visscher, R. Bast, A. J. Thorvaldsen and K. Ruud;
J.Chem.Theor.Comp. 2010, DOI: 10.1021/ct100117s
XCFun Version 0.99 

================================================================================

----- Orbital basis set information -----
Your calculation utilizes the basis: ZORA-def2-SVP 
   Exponents from def2-SVP [F. Weigend and R. Ahlrichs, Phys. Chem. Chem. Phys. 7, 3297 (2005)],
   recontracted for ZORA by D. A. Pantazis.

The basis set includes element-specific modifications.

Your calculation utilizes the basis: SARC-ZORA-TZVP 
   Rb-Xe:  J. D. Rolfes, F. Neese and D. A. Pantazis, J. Comput. Chem. 41, 1842 (2020).
   La-Lu:  D. A. Pantazis and F. Neese, J. Chem. Theory Comput. 5, 2229 (2009).
   Hf-Hg:  D. A. Pantazis, X. Y. Chen, C. R. Landis and F. Neese, J. Chem. Theory Comput. 4, 908 (2008).
   Tl-Rn:  D. A. Pantazis and F. Neese, Theor. Chem. Acc. 131, 1292 (2012).
   Ac-Lr:  D. A. Pantazis and F. Neese, J. Chem. Theory Comput. 7, 677 (2011).

----- AuxJ basis set information -----
Your calculation utilizes the auxiliary basis: SARC/J 
   decontracted def2/J up to Kr:
   F. Weigend, Phys. Chem. Chem. Phys. 8, 1057 (2006)
   and SARC auxiliary basis sets beyond Kr:
   D. A. Pantazis and F. Neese, J. Chem. Theory Comput. 5, 2229 (2009).
   D. A. Pantazis, X. Y. Chen, C. R. Landis and F. Neese, J. Chem. Theory Comput. 4, 908 (2008).
   D. A. Pantazis and F. Neese, Theor. Chem. Acc. 131, 1292 (2012).
   D. A. Pantazis and F. Neese, J. Chem. Theory Comput. 7, 677 (2011).

================================================================================
                                        WARNINGS
                       Please study these warnings very carefully!
================================================================================

INFO   : Checking CIS options ...

INFO   : Since TDDFT/CIS Mode == RPA_AOINTS, the TAMMDANCOFF/TDA keyword is ignored. 


WARNING: (CIS/TDDFT): Spin-orbit needs TRIPLETS set to TRUE
  ===> : ajusting flags

WARNING: CIS/ROCIS methods need fully converged wavefunctions
  ===> : Setting SCFConvForced true
         You can overwrite this default with %scf ConvForced false 


INFO   : the flag for use of the SHARK integral package has been found!

================================================================================
                                       INPUT FILE
================================================================================
NAME = Ru-arylbpy_3_SOC-wB97XD_def2SVP.inp
|  1> %maxcore 12000
|  2> %pal
|  3>  nprocs 8
|  4> end
|  5> ! wB97X-D3 ZORA ZORA-DEF2-SVP SARC/J CPCM RI-SOMF(1X)
|  6> 
|  7> %TDDFT 
|  8>     NROOTS    50
|  9>     TDA       FALSE
| 10>     DOSOC     TRUE
| 11> END
| 12> 
| 13> %CPCM
| 14>     SMD		TRUE
| 15>     SMDsolvent	"Acetonitrile"
| 16> END
| 17> 
| 18> %BASIS
| 19>     NEWGTO  RU      "SARC-ZORA-TZVP" END
| 20>     NEWGTO  IR      "SARC-ZORA-TZVP" END
| 21> END
| 22> 
| 23> * xyz 2 1
| 24> C                   1.65514600    2.33716100   -0.63303900
| 25> C                   2.12650600    0.63355700   -2.13009100
| 26> C                   3.09034100    1.39745000   -2.76777900
| 27> C                   2.60989400    3.15664900   -1.22668400
| 28> C                   0.83179800    2.74756100    0.52813800
| 29> C                  -0.80252800    2.09408200    2.03405500
| 30> C                  -0.77375400    3.32399600    2.67080700
| 31> C                   0.91029700    4.00377000    1.12089900
| 32> H                   1.90195800   -0.37849500   -2.47008300
| 33> H                   3.61572700    0.97422800   -3.62456500
| 34> H                   2.79293200    4.15261700   -0.82528000
| 35> H                  -1.47005400    1.30319200    2.37938000
| 36> H                  -1.42436800    3.48777100    3.53055500
| 37> H                   1.59027100    4.75167400    0.71498700
| 38> C                   1.20335300   -2.61239700   -0.57603500
| 39> C                  -0.49205400   -2.20020300   -2.09892700
| 40> C                  -0.29956900   -3.42543100   -2.71591900
| 41> C                   1.44693100   -3.85719800   -1.14739800
| 42> C                   1.96001000   -2.08167400    0.58180300
| 43> C                   2.18678900   -0.31669000    2.06493800
| 44> C                   3.23190400   -0.94329900    2.72367800
| 45> C                   3.00252300   -2.76612400    1.19867000
| 46> H                  -1.25510900   -1.50869400   -2.45943400
| 47> H                  -0.91884700   -3.68421800   -3.57540200
| 48> H                   2.21590100   -4.50300900   -0.72578700
| 49> H                   1.83732500    0.66687500    2.38237500
| 50> H                   3.71162300   -0.43015300    3.55782600
| 51> H                   3.29163200   -3.75232600    0.83775300
| 52> C                  -2.79602700   -0.62765000    0.57547400
| 53> C                  -1.39937900   -1.68270000    2.09264200
| 54> C                  -2.47403800   -2.24011600    2.76601500
| 55> C                  -3.91885800   -1.14955000    1.20979900
| 56> C                  -2.86210600    0.25098800   -0.61542200
| 57> C                  -1.63567700    1.45340300   -2.16949400
| 58> C                  -2.78386100    1.86958600   -2.82341500
| 59> C                  -4.05342900    0.63361800   -1.22376500
| 60> H                  -0.37644400   -1.87626400    2.41878300
| 61> H                  -4.91312100   -0.89714500    0.84370700
| 62> H                  -0.65025000    1.75588400   -2.52707100
| 63> H                  -5.00396200    0.29994800   -0.80940000
| 64> N                  -1.54749900   -0.89018700    1.02329400
| 65> N                  -0.01938200    1.80275800    0.98735800
| 66> N                   1.55716300   -0.86743000    1.01904500
| 67> N                   1.41955800    1.08524600   -1.08628600
| 68> N                   0.23888600   -1.79354000   -1.05298900
| 69> N                  -1.66422900    0.66063600   -1.09046400
| 70> Ru                 -0.00325300   -0.00067300   -0.03733400
| 71> H                  -2.27959000   -2.89135900    3.61879500
| 72> H                  -2.68649100    2.49803900   -3.70926000
| 73> C                   0.10142500    4.31963100    2.21835800
| 74> C                   3.35572700    2.69728400   -2.31816100
| 75> C                   0.69256500   -4.29369900   -2.24244300
| 76> C                   3.66549400   -2.20466900    2.29586400
| 77> C                  -3.77886900   -1.97577400    2.33056100
| 78> C                  -4.03800500    1.45931100   -2.35348400
| 79> C                  -4.96217100   -2.54203800    3.02273300
| 80> C                  -4.95405400   -2.74099400    4.41244200
| 81> C                  -6.11656400   -2.89256700    2.31004400
| 82> C                  -6.06538500   -3.26696700    5.06158900
| 83> H                  -4.07593600   -2.46188300    4.99961300
| 84> C                  -7.22428700   -3.42576900    2.96603100
| 85> C                  -7.22221100   -3.62084500    4.35183700
| 86> H                  -6.03767800   -3.40271100    6.14624800
| 87> H                  -8.10911700   -3.69964700    2.38532500
| 88> C                  -5.29559200    1.87705100   -3.01952300
| 89> C                  -5.39881100    3.13201000   -3.63589400
| 90> C                  -6.41160800    1.02732200   -3.05375800
| 91> C                  -6.58048000    3.52385300   -4.25947000
| 92> H                  -4.55307900    3.82332400   -3.61465900
| 93> C                  -7.58705800    1.42235000   -3.68474100
| 94> C                  -7.69673800    2.67878600   -4.29622600
| 95> H                  -6.63680000    4.51075900   -4.72650100
| 96> H                  -8.43781400    0.73602600   -3.70886200
| 97> C                   4.38095200    3.55212300   -2.96421700
| 98> C                   5.53994700    2.98938300   -3.52051500
| 99> C                   4.21765900    4.94206400   -3.03839500
|100> C                   6.50088100    3.79329100   -4.12441700
|101> C                   5.18068700    5.74083000   -3.65057700
|102> H                   3.31647000    5.40948200   -2.63456200
|103> C                   6.34085100    5.18407000   -4.20207600
|104> H                   7.39886900    3.33133700   -4.54365400
|105> H                   5.02276500    6.82114900   -3.70615600
|106> C                   0.93500900   -5.61684000   -2.86765600
|107> C                  -0.12026700   -6.34582400   -3.43858400
|108> C                   2.22015600   -6.17411600   -2.90503700
|109> C                   0.10593700   -7.58895400   -4.01853400
|110> C                   2.44129100   -7.41753100   -3.49373400
|111> H                   3.06909200   -5.62552300   -2.49038000
|112> C                   1.39099500   -8.14945100   -4.05901600
|113> H                  -0.73510200   -8.14146900   -4.44640200
|114> H                   3.45550600   -7.82479600   -3.51763100
|115> C                   4.77568100   -2.91790700    2.97273200
|116> C                   5.65126700   -3.74124300    2.25041700
|117> C                   4.97428800   -2.78966900    4.35524600
|118> C                   6.69121500   -4.40907900    2.89083300
|119> C                   6.01177100   -3.46558700    4.99053000
|120> H                   4.29626500   -2.17308900    4.95021800
|121> C                   6.89249300   -4.28479500    4.27164000
|122> H                   7.36414300   -5.03971000    2.30361500
|123> H                   6.13683300   -3.35935500    6.07147300
|124> C                   0.17287800    5.64942100    2.87098600
|125> C                  -0.97388600    6.24204000    3.42255000
|126> C                   1.38582000    6.34528700    2.95810300
|127> C                  -0.90499300    7.48890200    4.03394200
|128> C                   1.44923300    7.59128300    3.57859100
|129> H                   2.30142000    5.90334300    2.55809500
|130> C                   0.30764600    8.18766000    4.12597200
|131> H                  -1.81419300    7.93381800    4.44755100
|132> H                   2.41024900    8.10840700    3.64290500
|133> H                  -1.93822400    5.73277400    3.35566200
|134> H                   5.70596300    1.91101800   -3.46452200
|135> H                   5.53400000   -3.84997900    1.16965500
|136> H                  -1.13701500   -5.94739600   -3.41215000
|137> H                  -6.35758800    0.03310300   -2.60366700
|138> H                  -6.15029000   -2.77010700    1.22474200
|139> C                  -8.98192500    3.11148300   -4.94680800
|140> H                  -9.68247100    3.50752700   -4.19305400
|141> H                  -8.81081400    3.90451900   -5.68855700
|142> H                  -9.48216200    2.26798400   -5.44477800
|143> C                  -8.41563800   -4.18992700    5.06903600
|144> H                  -8.14991800   -5.11818600    5.59891300
|145> H                  -8.79192500   -3.48348600    5.82564100
|146> H                  -9.23535000   -4.41495200    4.37268700
|147> C                   0.36547900    9.53602000    4.79004900
|148> H                  -0.25250800   10.26735300    4.24520500
|149> H                  -0.02559400    9.48608500    5.81819100
|150> H                   1.39380500    9.92125000    4.83078900
|151> C                   7.39696500    6.04420000   -4.84006600
|152> H                   8.26762400    6.14820900   -4.17198900
|153> H                   7.76031600    5.59876700   -5.77826500
|154> H                   7.01885300    7.05318400   -5.05640100
|155> C                   8.03393300   -4.98465200    4.95683300
|156> H                   8.92177800   -4.33165000    4.99168400
|157> H                   7.77936500   -5.24651300    5.99402900
|158> H                   8.32113000   -5.90226500    4.42367200
|159> C                   1.61932500   -9.49411200   -4.69303600
|160> H                   1.02083900  -10.27094400   -4.19163600
|161> H                   1.31494600   -9.48596300   -5.75150500
|162> H                   2.67646800   -9.78975500   -4.64247500
|163> *
|164> 
|165>                          ****END OF INPUT****
================================================================================

                       ****************************
                       * Single Point Calculation *
                       ****************************

---------------------------------
CARTESIAN COORDINATES (ANGSTROEM)
---------------------------------
  C      1.655146    2.337161   -0.633039
  C      2.126506    0.633557   -2.130091
  C      3.090341    1.397450   -2.767779
  C      2.609894    3.156649   -1.226684
  C      0.831798    2.747561    0.528138
  C     -0.802528    2.094082    2.034055
  C     -0.773754    3.323996    2.670807
  C      0.910297    4.003770    1.120899
  H      1.901958   -0.378495   -2.470083
  H      3.615727    0.974228   -3.624565
  H      2.792932    4.152617   -0.825280
  H     -1.470054    1.303192    2.379380
  H     -1.424368    3.487771    3.530555
  H      1.590271    4.751674    0.714987
  C      1.203353   -2.612397   -0.576035
  C     -0.492054   -2.200203   -2.098927
  C     -0.299569   -3.425431   -2.715919
  C      1.446931   -3.857198   -1.147398
  C      1.960010   -2.081674    0.581803
  C      2.186789   -0.316690    2.064938
  C      3.231904   -0.943299    2.723678
  C      3.002523   -2.766124    1.198670
  H     -1.255109   -1.508694   -2.459434
  H     -0.918847   -3.684218   -3.575402
  H      2.215901   -4.503009   -0.725787
  H      1.837325    0.666875    2.382375
  H      3.711623   -0.430153    3.557826
  H      3.291632   -3.752326    0.837753
  C     -2.796027   -0.627650    0.575474
  C     -1.399379   -1.682700    2.092642
  C     -2.474038   -2.240116    2.766015
  C     -3.918858   -1.149550    1.209799
  C     -2.862106    0.250988   -0.615422
  C     -1.635677    1.453403   -2.169494
  C     -2.783861    1.869586   -2.823415
  C     -4.053429    0.633618   -1.223765
  H     -0.376444   -1.876264    2.418783
  H     -4.913121   -0.897145    0.843707
  H     -0.650250    1.755884   -2.527071
  H     -5.003962    0.299948   -0.809400
  N     -1.547499   -0.890187    1.023294
  N     -0.019382    1.802758    0.987358
  N      1.557163   -0.867430    1.019045
  N      1.419558    1.085246   -1.086286
  N      0.238886   -1.793540   -1.052989
  N     -1.664229    0.660636   -1.090464
  Ru    -0.003253   -0.000673   -0.037334
  H     -2.279590   -2.891359    3.618795
  H     -2.686491    2.498039   -3.709260
  C      0.101425    4.319631    2.218358
  C      3.355727    2.697284   -2.318161
  C      0.692565   -4.293699   -2.242443
  C      3.665494   -2.204669    2.295864
  C     -3.778869   -1.975774    2.330561
  C     -4.038005    1.459311   -2.353484
  C     -4.962171   -2.542038    3.022733
  C     -4.954054   -2.740994    4.412442
  C     -6.116564   -2.892567    2.310044
  C     -6.065385   -3.266967    5.061589
  H     -4.075936   -2.461883    4.999613
  C     -7.224287   -3.425769    2.966031
  C     -7.222211   -3.620845    4.351837
  H     -6.037678   -3.402711    6.146248
  H     -8.109117   -3.699647    2.385325
  C     -5.295592    1.877051   -3.019523
  C     -5.398811    3.132010   -3.635894
  C     -6.411608    1.027322   -3.053758
  C     -6.580480    3.523853   -4.259470
  H     -4.553079    3.823324   -3.614659
  C     -7.587058    1.422350   -3.684741
  C     -7.696738    2.678786   -4.296226
  H     -6.636800    4.510759   -4.726501
  H     -8.437814    0.736026   -3.708862
  C      4.380952    3.552123   -2.964217
  C      5.539947    2.989383   -3.520515
  C      4.217659    4.942064   -3.038395
  C      6.500881    3.793291   -4.124417
  C      5.180687    5.740830   -3.650577
  H      3.316470    5.409482   -2.634562
  C      6.340851    5.184070   -4.202076
  H      7.398869    3.331337   -4.543654
  H      5.022765    6.821149   -3.706156
  C      0.935009   -5.616840   -2.867656
  C     -0.120267   -6.345824   -3.438584
  C      2.220156   -6.174116   -2.905037
  C      0.105937   -7.588954   -4.018534
  C      2.441291   -7.417531   -3.493734
  H      3.069092   -5.625523   -2.490380
  C      1.390995   -8.149451   -4.059016
  H     -0.735102   -8.141469   -4.446402
  H      3.455506   -7.824796   -3.517631
  C      4.775681   -2.917907    2.972732
  C      5.651267   -3.741243    2.250417
  C      4.974288   -2.789669    4.355246
  C      6.691215   -4.409079    2.890833
  C      6.011771   -3.465587    4.990530
  H      4.296265   -2.173089    4.950218
  C      6.892493   -4.284795    4.271640
  H      7.364143   -5.039710    2.303615
  H      6.136833   -3.359355    6.071473
  C      0.172878    5.649421    2.870986
  C     -0.973886    6.242040    3.422550
  C      1.385820    6.345287    2.958103
  C     -0.904993    7.488902    4.033942
  C      1.449233    7.591283    3.578591
  H      2.301420    5.903343    2.558095
  C      0.307646    8.187660    4.125972
  H     -1.814193    7.933818    4.447551
  H      2.410249    8.108407    3.642905
  H     -1.938224    5.732774    3.355662
  H      5.705963    1.911018   -3.464522
  H      5.534000   -3.849979    1.169655
  H     -1.137015   -5.947396   -3.412150
  H     -6.357588    0.033103   -2.603667
  H     -6.150290   -2.770107    1.224742
  C     -8.981925    3.111483   -4.946808
  H     -9.682471    3.507527   -4.193054
  H     -8.810814    3.904519   -5.688557
  H     -9.482162    2.267984   -5.444778
  C     -8.415638   -4.189927    5.069036
  H     -8.149918   -5.118186    5.598913
  H     -8.791925   -3.483486    5.825641
  H     -9.235350   -4.414952    4.372687
  C      0.365479    9.536020    4.790049
  H     -0.252508   10.267353    4.245205
  H     -0.025594    9.486085    5.818191
  H      1.393805    9.921250    4.830789
  C      7.396965    6.044200   -4.840066
  H      8.267624    6.148209   -4.171989
  H      7.760316    5.598767   -5.778265
  H      7.018853    7.053184   -5.056401
  C      8.033933   -4.984652    4.956833
  H      8.921778   -4.331650    4.991684
  H      7.779365   -5.246513    5.994029
  H      8.321130   -5.902265    4.423672
  C      1.619325   -9.494112   -4.693036
  H      1.020839  -10.270944   -4.191636
  H      1.314946   -9.485963   -5.751505
  H      2.676468   -9.789755   -4.642475

----------------------------
CARTESIAN COORDINATES (A.U.)
----------------------------
  NO LB      ZA    FRAG     MASS         X           Y           Z
   0 C     6.0000    0    12.011    3.127773    4.416594   -1.196270
   1 C     6.0000    0    12.011    4.018514    1.197249   -4.025289
   2 C     6.0000    0    12.011    5.839898    2.640798   -5.230344
   3 C     6.0000    0    12.011    4.931985    5.965202   -2.318097
   4 C     6.0000    0    12.011    1.571870    5.192138    0.998036
   5 C     6.0000    0    12.011   -1.516558    3.957241    3.843807
   6 C     6.0000    0    12.011   -1.462183    6.281442    5.047094
   7 C     6.0000    0    12.011    1.720212    7.566029    2.118192
   8 H     1.0000    0     1.008    3.594180   -0.715252   -4.667780
   9 H     1.0000    0     1.008    6.832734    1.841024   -6.849435
  10 H     1.0000    0     1.008    5.277877    7.847309   -1.559553
  11 H     1.0000    0     1.008   -2.777999    2.462676    4.496377
  12 H     1.0000    0     1.008   -2.691665    6.590932    6.671782
  13 H     1.0000    0     1.008    3.005177    8.979363    1.351130
  14 C     6.0000    0    12.011    2.274008   -4.936715   -1.088548
  15 C     6.0000    0    12.011   -0.929847   -4.157781   -3.966397
  16 C     6.0000    0    12.011   -0.566103   -6.473126   -5.132343
  17 C     6.0000    0    12.011    2.734303   -7.289048   -2.168268
  18 C     6.0000    0    12.011    3.703882   -3.933794    1.099448
  19 C     6.0000    0    12.011    4.132432   -0.598457    3.902167
  20 C     6.0000    0    12.011    6.107413   -1.782577    5.147005
  21 C     6.0000    0    12.011    5.673946   -5.227217    2.265158
  22 H     1.0000    0     1.008   -2.371812   -2.851018   -4.647657
  23 H     1.0000    0     1.008   -1.736369   -6.962163   -6.756531
  24 H     1.0000    0     1.008    4.187446   -8.509454   -1.371539
  25 H     1.0000    0     1.008    3.472041    1.260211    4.502036
  26 H     1.0000    0     1.008    7.013951   -0.812871    6.723317
  27 H     1.0000    0     1.008    6.220283   -7.090869    1.583124
  28 C     6.0000    0    12.011   -5.283725   -1.186087    1.087488
  29 C     6.0000    0    12.011   -2.644443   -3.179842    3.954520
  30 C     6.0000    0    12.011   -4.675254   -4.233206    5.227011
  31 C     6.0000    0    12.011   -7.405568   -2.172335    2.286189
  32 C     6.0000    0    12.011   -5.408597    0.474299   -1.162979
  33 C     6.0000    0    12.011   -3.090982    2.746534   -4.099750
  34 C     6.0000    0    12.011   -5.260735    3.533006   -5.335481
  35 C     6.0000    0    12.011   -7.659871    1.197364   -2.312581
  36 H     1.0000    0     1.008   -0.711376   -3.545625    4.570837
  37 H     1.0000    0     1.008   -9.284453   -1.695358    1.594375
  38 H     1.0000    0     1.008   -1.228794    3.318140   -4.775472
  39 H     1.0000    0     1.008   -9.456118    0.566820   -1.529544
  40 N     7.0000    0    14.007   -2.924349   -1.682210    1.933745
  41 N     7.0000    0    14.007   -0.036627    3.406719    1.865836
  42 N     7.0000    0    14.007    2.942612   -1.639205    1.925716
  43 N     7.0000    0    14.007    2.682576    2.050818   -2.052783
  44 N     7.0000    0    14.007    0.451429   -3.389299   -1.989861
  45 N     7.0000    0    14.007   -3.144937    1.248421   -2.060678
  46 Ru   44.0000    0   101.070   -0.006147   -0.001272   -0.070551
  47 H     1.0000    0     1.008   -4.307801   -5.463877    6.838531
  48 H     1.0000    0     1.008   -5.076732    4.720610   -7.009486
  49 C     6.0000    0    12.011    0.191665    8.162920    4.192089
  50 C     6.0000    0    12.011    6.341405    5.097128   -4.380689
  51 C     6.0000    0    12.011    1.308758   -8.113915   -4.237603
  52 C     6.0000    0    12.011    6.926780   -4.166221    4.338554
  53 C     6.0000    0    12.011   -7.141028   -3.733672    4.404122
  54 C     6.0000    0    12.011   -7.630724    2.757698   -4.447440
  55 C     6.0000    0    12.011   -9.377144   -4.803756    5.712138
  56 C     6.0000    0    12.011   -9.361805   -5.179728    8.338307
  57 C     6.0000    0    12.011  -11.558631   -5.466159    4.365351
  58 C     6.0000    0    12.011  -11.461917   -6.173673    9.565017
  59 H     1.0000    0     1.008   -7.702403   -4.652285    9.447899
  60 C     6.0000    0    12.011  -13.651924   -6.473765    5.604986
  61 C     6.0000    0    12.011  -13.648001   -6.842405    8.223780
  62 H     1.0000    0     1.008  -11.409558   -6.430192   11.614725
  63 H     1.0000    0     1.008  -15.324010   -6.991320    4.507611
  64 C     6.0000    0    12.011  -10.007219    3.547112   -5.706072
  65 C     6.0000    0    12.011  -10.202274    5.918641   -6.870844
  66 C     6.0000    0    12.011  -12.116183    1.941357   -5.770766
  67 C     6.0000    0    12.011  -12.435305    6.659117   -8.049232
  68 H     1.0000    0     1.008   -8.604072    7.225035   -6.830716
  69 C     6.0000    0    12.011  -14.337462    2.687852   -6.963151
  70 C     6.0000    0    12.011  -14.544727    5.062172   -8.118691
  71 H     1.0000    0     1.008  -12.541734    8.524099   -8.931792
  72 H     1.0000    0     1.008  -15.945158    1.390888   -7.008733
  73 C     6.0000    0    12.011    8.278799    6.712540   -5.601558
  74 C     6.0000    0    12.011   10.468983    5.649115   -6.652809
  75 C     6.0000    0    12.011    7.970220    9.339147   -5.741734
  76 C     6.0000    0    12.011   12.284885    7.168281   -7.794019
  77 C     6.0000    0    12.011    9.790080   10.848596   -6.898591
  78 H     1.0000    0     1.008    6.267220   10.222440   -4.978601
  79 C     6.0000    0    12.011   11.982472    9.796473   -7.940773
  80 H     1.0000    0     1.008   13.981836    6.295315   -8.586262
  81 H     1.0000    0     1.008    9.491650   12.890104   -7.003620
  82 C     6.0000    0    12.011    1.766911  -10.614289   -5.419084
  83 C     6.0000    0    12.011   -0.227272  -11.991869   -6.497982
  84 C     6.0000    0    12.011    4.195487  -11.667388   -5.489724
  85 C     6.0000    0    12.011    0.200192  -14.341045   -7.593929
  86 C     6.0000    0    12.011    4.613371  -14.017102   -6.602200
  87 H     1.0000    0     1.008    5.799743  -10.630698   -4.706136
  88 C     6.0000    0    12.011    2.628600  -15.400231   -7.670429
  89 H     1.0000    0     1.008   -1.389141  -15.385147   -8.402482
  90 H     1.0000    0     1.008    6.529960  -14.786721   -6.647359
  91 C     6.0000    0    12.011    9.024729   -5.514045    5.617649
  92 C     6.0000    0    12.011   10.679347   -7.069925    4.252672
  93 C     6.0000    0    12.011    9.400042   -5.271710    8.230222
  94 C     6.0000    0    12.011   12.644564   -8.331952    5.462883
  95 C     6.0000    0    12.011   11.360601   -6.549010    9.430735
  96 H     1.0000    0     1.008    8.118764   -4.106543    9.354556
  97 C     6.0000    0    12.011   13.024924   -8.097089    8.072230
  98 H     1.0000    0     1.008   13.916213   -9.523672    4.353201
  99 H     1.0000    0     1.008   11.596934   -6.348261   11.473421
 100 C     6.0000    0    12.011    0.326692   10.675859    5.425377
 101 C     6.0000    0    12.011   -1.840378   11.795746    6.467682
 102 C     6.0000    0    12.011    2.618820   11.990855    5.590005
 103 C     6.0000    0    12.011   -1.710189   14.151974    7.623046
 104 C     6.0000    0    12.011    2.738653   14.345446    6.762557
 105 H     1.0000    0     1.008    4.349054   11.155702    4.834099
 106 C     6.0000    0    12.011    0.581367   15.472435    7.796957
 107 H     1.0000    0     1.008   -3.428328   14.992743    8.404653
 108 H     1.0000    0     1.008    4.554711   15.322669    6.884093
 109 H     1.0000    0     1.008   -3.662713   10.833373    6.341282
 110 H     1.0000    0     1.008   10.782707    3.611301   -6.546998
 111 H     1.0000    0     1.008   10.457744   -7.275406    2.210328
 112 H     1.0000    0     1.008   -2.148647  -11.238950   -6.448029
 113 H     1.0000    0     1.008  -12.014100    0.062556   -4.920218
 114 H     1.0000    0     1.008  -11.622364   -5.234744    2.314427
 115 C     6.0000    0    12.011  -16.973378    5.879851   -9.348112
 116 H     1.0000    0     1.008  -18.297218    6.628265   -7.923724
 117 H     1.0000    0     1.008  -16.650025    7.378472  -10.749815
 118 H     1.0000    0     1.008  -17.918689    4.285869  -10.289139
 119 C     6.0000    0    12.011  -15.903251   -7.917815    9.579090
 120 H     1.0000    0     1.008  -15.401113   -9.671970   10.580412
 121 H     1.0000    0     1.008  -16.614330   -6.582835   11.008866
 122 H     1.0000    0     1.008  -17.452282   -8.343050    8.263181
 123 C     6.0000    0    12.011    0.690655   18.020466    9.051881
 124 H     1.0000    0     1.008   -0.477171   19.402485    8.022275
 125 H     1.0000    0     1.008   -0.048366   17.926103   10.994788
 126 H     1.0000    0     1.008    2.633910   18.748445    9.128868
 127 C     6.0000    0    12.011   13.978238   11.421883   -9.146399
 128 H     1.0000    0     1.008   15.623545   11.618431   -7.883917
 129 H     1.0000    0     1.008   14.664872   10.580136  -10.919338
 130 H     1.0000    0     1.008   13.263710   13.328586   -9.555213
 131 C     6.0000    0    12.011   15.181933   -9.419627    9.367057
 132 H     1.0000    0     1.008   16.859717   -8.185632    9.432916
 133 H     1.0000    0     1.008   14.700869   -9.914473   11.327073
 134 H     1.0000    0     1.008   15.724657  -11.153664    8.359529
 135 C     6.0000    0    12.011    3.060081  -17.941272   -8.868553
 136 H     1.0000    0     1.008    1.929106  -19.409271   -7.921044
 137 H     1.0000    0     1.008    2.484888  -17.925872  -10.868769
 138 H     1.0000    0     1.008    5.057792  -18.499956   -8.773006

--------------------------------
INTERNAL COORDINATES (ANGSTROEM)
--------------------------------
 C      0   0   0     0.000000000000     0.00000000     0.00000000
 C      1   0   0     2.316378969236     0.00000000     0.00000000
 C      2   1   0     1.385336207575    91.92144548     0.00000000
 C      1   2   3     1.391229208892    91.01943955   359.94342150
 C      1   2   3     1.481439203759   145.42767486   180.42304746
 C      5   1   2     2.316428779092   145.43979751     0.89330127
 C      6   5   1     1.385268746481    91.93136671   179.99562130
 C      5   1   2     1.391254379257   123.55475821   180.93909800
 H      2   1   3     1.090992949139   147.32737214   180.76803038
 H      3   2   1     1.090518023728   118.87141505   181.12796903
 H      4   1   2     1.089302684144   119.77815389   181.36849391
 H      6   5   1     1.091030388395   147.34495365     0.93153424
 H      7   6   5     1.090544566318   118.90265406   181.09869574
 H      8   5   1     1.089261027319   119.76333881     1.39884731
 C      9   2   1     3.010944190438   122.68111020   322.94784231
 C     15   9   2     2.315925049078    67.92345979   120.29269984
 C     16  15   9     1.385248445324    91.93348681   112.63775393
 C     15   9   2     1.391156155668   111.40077360   202.31267189
 C     15   9   2     1.481480864751    96.16208318   332.01185164
 C     19  15   9     2.316524695168   145.41854380    60.99434288
 C     20  19  15     1.385222938630    91.92972540   179.44747736
 C     19  15   9     1.391341098853   123.57089649   240.28092630
 H     16  15   9     1.091055877192   147.35903426   293.50278532
 H     17  16  15     1.090498500660   118.81830664   181.07761743
 H     18  15   9     1.089101714232   119.68444904   114.77350914
 H     20  19  15     1.091004787107   147.33122786   358.96513214
 H     21  20  19     1.090528322503   118.86742112   178.78196042
 H     22  19  15     1.089238027051   119.82628401   359.30381176
 C     12   6   5     2.956422175964   123.69134850   323.96022213
 C     29  12   6     2.316366740961    68.12405729   119.07942778
 C     30  29  12     1.385292662388    91.94308328   110.62979232
 C     29  12   6     1.391221502920   109.19478284   202.17360756
 C     29  12   6     1.481419742038    97.07409045   331.46590398
 C     33  29  12     2.316262011399   145.45032411    61.49804135
 C     34  33  29     1.385332978596    91.93770952   179.36876317
 C     33  29  12     1.391307806662   123.55951292   240.82427471
 H     30  29  12     1.090977079595   147.34728863   290.25653686
 H     32  29  12     1.089169660640   119.77320552   111.45980012
 H     34  33  29     1.091064818706   147.35480798     0.31998377
 H     36  33  29     1.089287384584   119.77659305     1.34859782
 N     30  29  12     1.339224228676    30.77171560   290.95725298
 N      6   5   1     1.339313981149    30.76674716     0.20167158
 N     20  19  15     1.339266819915    30.75820103   359.72641832
 N      2   1   3     1.339151711140    30.76832510   180.06984984
 N     16  15   9     1.339266358501    30.78980518   292.75882354
 N     34  33  29     1.339253700347    30.77853121   359.52333229
 Ru    41  30  29     2.073852120836   125.43872660   179.87486876
 H     31  30  29     1.090486679494   118.82290254   178.69494404
 H     35  34  33     1.090484045795   118.85403229   181.18471922
 C      8   5   1     1.399449298969   120.35156412   180.12140600
 C      4   1   2     1.399501735849   120.34292251     0.00000000
 C     18  15   9     1.399544474814   120.40129696   293.51366007
 C     22  19  15     1.399498816542   120.34378872   180.47522125
 C     32  29  12     1.399410761335   120.39172354   292.69246640
 C     36  33  29     1.399382667102   120.38577365   180.46765966
 C     54  32  29     1.483226421853   121.28822539   179.95150134
 C     56  54  32     1.403901877022   120.75981673   213.63246944
 C     56  54  32     1.401220678198   121.02464948    33.63217047
 C     57  56  54     1.390358232938   120.74124627   179.74731805
 H     57  56  54     1.092595055584   120.02784859     1.06239158
 C     58  56  54     1.393439471847   120.74411654   179.91447171
 C     61  58  56     1.399470337373   121.22038299     0.33973761
 H     59  57  56     1.093471196542   119.32994664   180.62406891
 H     61  58  56     1.093230417716   119.28888582   180.56831034
 C     55  36  33     1.483118241979   121.29124361   179.86890277
 C     65  55  36     1.401959151788   120.79693931   147.10751367
 C     65  55  36     1.403104814660   120.98536368   326.91210218
 C     66  65  55     1.392382702416   120.74983249   180.07996785
 H     66  65  55     1.092533105972   120.05802993   358.92141678
 C     67  65  55     1.391355227673   120.73636799   180.26211074
 C     68  66  65     1.400543166271   121.22176883   359.70949876
 H     68  66  65     1.093285575775   119.27928376   179.56784429
 H     70  67  65     1.093347258264   119.28524988   179.18510610
 C     51   4   1     1.482978210117   121.26423859   180.16275831
 C     74  51   4     1.403357824088   120.83015470   146.90727400
 C     74  51   4     1.401464577866   120.94411535   326.76643173
 C     75  74  51     1.390812658277   120.72712198   180.08176479
 C     76  74  51     1.392916671113   120.75973838   180.24406304
 H     76  74  51     1.092566836552   120.05570671   358.79620638
 C     78  76  74     1.400040482092   121.19801360   359.63303694
 H     77  75  74     1.093409167891   119.32158195   179.53220486
 H     78  76  74     1.093214308855   119.28502785   179.22997069
 C     52  18  15     1.483365259936   121.32445490   179.99008692
 C     83  52  18     1.403917337173   120.77803795   147.53992109
 C     83  52  18     1.401269671029   121.05618194   327.56445527
 C     84  83  52     1.390281427991   120.77259825   180.32710366
 C     85  83  52     1.393393594165   120.77774115   179.99480681
 H     85  83  52     1.092514091165   120.18756665   358.61854850
 C     87  85  83     1.399418562668   121.21652076   359.72034161
 H     86  84  83     1.093476314407   119.33306441   179.31923972
 H     87  85  83     1.093191617723   119.26963848   179.42419646
 C     53  22  19     1.483028627181   121.29890134   179.75131959
 C     92  53  22     1.402238200705   120.97861256    33.48485038
 C     92  53  22     1.402581436241   120.79108509   213.71098855
 C     93  92  53     1.391987578485   120.74464499   180.03918137
 C     94  92  53     1.391697481017   120.73749188   179.62667164
 H     94  92  53     1.092647136871   120.03034018     1.11662786
 C     95  93  92     1.400923737107   121.21443128     0.24478578
 H     95  93  92     1.093321787430   119.30509340   180.41264217
 H     96  94  92     1.093326808835   119.30072277   180.82019181
 C     50   8   5     1.483027404229   121.30787478   179.66888826
 C    101  50   8     1.403740644476   120.80389679   146.15427412
 C    101  50   8     1.401087847713   120.95839029   325.91817157
 C    102 101  50     1.390399680005   120.72302702   180.00494074
 C    103 101  50     1.393388889983   120.74455101   180.34496590
 H    103 101  50     1.092540278068   120.12178104   358.92717771
 C    105 103 101     1.399468600526   121.20620057   359.67396897
 H    104 102 101     1.093465725086   119.34122653   179.41194474
 H    105 103 101     1.093208705704   119.28802365   179.33203274
 H    102 101  50     1.092599488168   120.01342612   358.71412284
 H     75  74  51     1.092505195196   120.06536145   358.82477117
 H     93  92  53     1.092529893243   120.06505629     1.20785012
 H     84  83  52     1.092346155321   120.02711186   359.04421206
 H     67  65  55     1.092690024043   120.10972607   358.75131861
 H     58  56  54     1.092709625601   120.16980442     1.23868002
 C     71  68  66     1.504057597801   121.25192449   178.82626746
 H    116  71  68     1.102615363836   110.51984534   263.55590605
 H    116  71  68     1.099261866262   111.49431084    23.08464602
 H    116  71  68     1.099864418949   111.33632954   144.50992500
 C     62  61  58     1.504159809546   121.58181397   179.71772354
 H    120  62  61     1.101381643487   110.90643757   120.78930523
 H    120  62  61     1.101409060647   110.85108257   239.51177660
 H    120  62  61     1.098847552379   111.54227712     0.11449269
 C    107 105 103     1.504133507179   121.55618958   180.37932861
 H    124 107 105     1.101640083418   110.80460990   116.96297985
 H    124 107 105     1.101139213596   110.97286125   235.70947197
 H    124 107 105     1.098870448586   111.50684167   356.51131073
 C     80  78  76     1.504071686455   121.43534023   181.23050013
 H    128  80  78     1.102357403155   110.57740400   104.12493711
 H    128  80  78     1.100296264781   111.22636882   222.99757610
 H    128  80  78     1.099007838473   111.52704874   344.28190508
 C     98  95  93     1.504052705625   121.11640972   181.28100990
 H    132  98  95     1.102676266286   110.48083584    91.32569189
 H    132  98  95     1.099614292541   111.39661266   210.50633540
 H    132  98  95     1.099434575816   111.44968393   331.98694750
 C     89  87  85     1.504070860771   121.59590343   180.18168853
 H    136  89  87     1.101387946375   110.86542037   120.68994229
 H    136  89  87     1.101394391580   110.88780849   239.41232776
 H    136  89  87     1.098868745856   111.54157903     0.05966407

---------------------------
INTERNAL COORDINATES (A.U.)
---------------------------
 C      0   0   0     0.000000000000     0.00000000     0.00000000
 C      1   0   0     4.377321874231     0.00000000     0.00000000
 C      2   1   0     2.617906035722    91.92144548     0.00000000
 C      1   2   3     2.629042194317    91.01943955   359.94342150
 C      1   2   3     2.799514379158   145.42767486   180.42304746
 C      5   1   2     4.377416001218   145.43979751     0.89330127
 C      6   5   1     2.617778552729    91.93136671   179.99562130
 C      5   1   2     2.629089759415   123.55475821   180.93909800
 H      2   1   3     2.061677887913   147.32737214   180.76803038
 H      3   2   1     2.060780408951   118.87141505   181.12796903
 H      4   1   2     2.058483749978   119.77815389   181.36849391
 H      6   5   1     2.061748637852   147.34495365     0.93153424
 H      7   6   5     2.060830567176   118.90265406   181.09869574
 H      8   5   1     2.058405029987   119.76333881     1.39884731
 C      9   2   1     5.689859924449   122.68111020   322.94784231
 C     15   9   2     4.376464089446    67.92345979   120.29269984
 C     16  15   9     2.617740189103    91.93348681   112.63775393
 C     15   9   2     2.628904143732   111.40077360   202.31267189
 C     15   9   2     2.799593107023    96.16208318   332.01185164
 C     19  15   9     4.377597256332   145.41854380    60.99434288
 C     20  19  15     2.617691988436    91.92972540   179.44747736
 C     19  15   9     2.629253635702   123.57089649   240.28092630
 H     16  15   9     2.061796804698   147.35903426   293.50278532
 H     17  16  15     2.060743515699   118.81830664   181.07761743
 H     18  15   9     2.058103971882   119.68444904   114.77350914
 H     20  19  15     2.061700258429   147.33122786   358.96513214
 H     21  20  19     2.060799870815   118.86742112   178.78196042
 H     22  19  15     2.058361565779   119.82628401   359.30381176
 C     12   6   5     5.586828248823   123.69134850   323.96022213
 C     29  12   6     4.377298766139    68.12405729   119.07942778
 C     30  29  12     2.617823747244    91.94308328   110.62979232
 C     29  12   6     2.629027632140   109.19478284   202.17360756
 C     29  12   6     2.799477601837    97.07409045   331.46590398
 C     33  29  12     4.377100855950   145.45032411    61.49804135
 C     34  33  29     2.617899933836    91.93770952   179.36876317
 C     33  29  12     2.629190722577   123.55951292   240.82427471
 H     30  29  12     2.061647898820   147.34728863   290.25653686
 H     32  29  12     2.058232371985   119.77320552   111.45980012
 H     34  33  29     2.061813701712   147.35480798     0.31998377
 H     36  33  29     2.058454837999   119.77659305     1.34859782
 N     30  29  12     2.530767024110    30.77171560   290.95725298
 N      6   5   1     2.530936631703    30.76674716     0.20167158
 N     20  19  15     2.530847509887    30.75820103   359.72641832
 N      2   1   3     2.530629985827    30.76832510   180.06984984
 N     16  15   9     2.530846637941    30.78980518   292.75882354
 N     34  33  29     2.530822717496    30.77853121   359.52333229
 Ru    41  30  29     3.919012550632   125.43872660   179.87486876
 H     31  30  29     2.060721176932   118.82290254   178.69494404
 H     35  34  33     2.060716199963   118.85403229   181.18471922
 C      8   5   1     2.644575913360   120.35156412   180.12140600
 C      4   1   2     2.644675004701   120.34292251     0.00000000
 C     18  15   9     2.644755769641   120.40129696   293.51366007
 C     22  19  15     2.644669488011   120.34378872   180.47522125
 C     32  29  12     2.644503087786   120.39172354   292.69246640
 C     36  33  29     2.644449997379   120.38577365   180.46765966
 C     54  32  29     2.802891731899   121.28822539   179.95150134
 C     56  54  32     2.652990066470   120.75981673   213.63246944
 C     56  54  32     2.647923334983   121.02464948    33.63217047
 C     57  56  54     2.627396288296   120.74124627   179.74731805
 H     57  56  54     2.064705430330   120.02784859     1.06239158
 C     58  56  54     2.633218985987   120.74411654   179.91447171
 C     61  58  56     2.644615670182   121.22038299     0.33973761
 H     59  57  56     2.066361096795   119.32994664   180.62406891
 H     61  58  56     2.065906090756   119.28888582   180.56831034
 C     55  36  33     2.802687301562   121.29124361   179.86890277
 C     65  55  36     2.649318847824   120.79693931   147.10751367
 C     65  55  36     2.651483836894   120.98536368   326.91210218
 C     66  65  55     2.631221981175   120.74983249   180.07996785
 H     66  65  55     2.064588362530   120.05802993   358.92141678
 C     67  65  55     2.629280335302   120.73636799   180.26211074
 C     68  66  65     2.646643022988   121.22176883   359.70949876
 H     68  66  65     2.066010324381   119.27928376   179.56784429
 H     70  67  65     2.066126887392   119.28524988   179.18510610
 C     51   4   1     2.802422679694   121.26423859   180.16275831
 C     74  51   4     2.651961955422   120.83015470   146.90727400
 C     74  51   4     2.648384238559   120.94411535   326.76643173
 C     75  74  51     2.628255027735   120.72712198   180.08176479
 C     76  74  51     2.632231035776   120.75973838   180.24406304
 H     76  74  51     2.064652104089   120.05570671   358.79620638
 C     78  76  74     2.645693087557   121.19801360   359.63303694
 H     77  75  74     2.066243879634   119.32158195   179.53220486
 H     78  76  74     2.065875649421   119.28502785   179.22997069
 C     52  18  15     2.803154097853   121.32445490   179.99008692
 C     83  52  18     2.653019281922   120.77803795   147.53992109
 C     83  52  18     2.648015918015   121.05618194   327.56445527
 C     84  83  52     2.627251147979   120.77259825   180.32710366
 C     85  83  52     2.633132289731   120.77774115   179.99480681
 H     85  83  52     2.064552429752   120.18756665   358.61854850
 C     87  85  83     2.644517830168   121.21652076   359.72034161
 H     86  84  83     2.066370768160   119.33306441   179.31923972
 H     87  85  83     2.065832769394   119.26963848   179.42419646
 C     53  22  19     2.802517954136   121.29890134   179.75131959
 C     92  53  22     2.649846173855   120.97861256    33.48485038
 C     92  53  22     2.650494795018   120.79108509   213.71098855
 C     93  92  53     2.630475305157   120.74464499   180.03918137
 C     94  92  53     2.629927100390   120.73749188   179.62667164
 H     94  92  53     2.064803849700   120.03034018     1.11662786
 C     95  93  92     2.647362197641   121.21443128     0.24478578
 H     95  93  92     2.066078754492   119.30509340   180.41264217
 H     96  94  92     2.066088243572   119.30072277   180.82019181
 C     50   8   5     2.802515643092   121.30787478   179.66888826
 C    101  50   8     2.652685381113   120.80389679   146.15427412
 C    101  50   8     2.647672321743   120.95839029   325.91817157
 C    102 101  50     2.627474611901   120.72302702   180.00494074
 C    103 101  50     2.633123400117   120.74455101   180.34496590
 H    103 101  50     2.064601915826   120.12178104   358.92717771
 C    105 103 101     2.644612388017   121.20620057   359.67396897
 H    104 102 101     2.066350757241   119.34122653   179.41194474
 H    105 103 101     2.065865061000   119.28802365   179.33203274
 H    102 101  50     2.064713806699   120.01342612   358.71412284
 H     75  74  51     2.064535618806   120.06536145   358.82477117
 H     93  92  53     2.064582291351   120.06505629     1.20785012
 H     84  83  52     2.064235076998   120.02711186   359.04421206
 H     67  65  55     2.064884894708   120.10972607   358.75131861
 H     58  56  54     2.064921936285   120.16980442     1.23868002
 C     71  68  66     2.842256949487   121.25192449   178.82626746
 H    116  71  68     2.083641068705   110.51984534   263.55590605
 H    116  71  68     2.077303876699   111.49431084    23.08464602
 H    116  71  68     2.078442536258   111.33632954   144.50992500
 C     62  61  58     2.842450101693   121.58181397   179.71772354
 H    120  62  61     2.081309675118   110.90643757   120.78930523
 H    120  62  61     2.081361486042   110.85108257   239.51177660
 H    120  62  61     2.076520936927   111.54227712     0.11449269
 C    107 105 103     2.842400397422   121.55618958   180.37932861
 H    124 107 105     2.081798055811   110.80460990   116.96297985
 H    124 107 105     2.080851549017   110.97286125   235.70947197
 H    124 107 105     2.076564204487   111.50684167   356.51131073
 C     80  78  76     2.842283573185   121.43534023   181.23050013
 H    128  80  78     2.083153593664   110.57740400   104.12493711
 H    128  80  78     2.079258606613   111.22636882   222.99757610
 H    128  80  78     2.076823833747   111.52704874   344.28190508
 C     98  95  93     2.842247704615   121.11640972   181.28100990
 H    132  98  95     2.083756157655   110.48083584    91.32569189
 H    132  98  95     2.077969865849   111.39661266   210.50633540
 H    132  98  95     2.077630250456   111.44968393   331.98694750
 C     89  87  85     2.842282012869   121.59590343   180.18168853
 H    136  89  87     2.081321585851   110.86542037   120.68994229
 H    136  89  87     2.081333765522   110.88780849   239.41232776
 H    136  89  87     2.076560986793   111.54157903     0.05966407

---------------------
BASIS SET INFORMATION
---------------------
There are 4 groups of distinct atoms

 Group   1 Type C   : 7s4p1d contracted to 3s2p1d pattern {511/31/1}
 Group   2 Type H   : 4s1p contracted to 2s1p pattern {31/1}
 Group   3 Type N   : 7s4p1d contracted to 3s2p1d pattern {511/31/1}
 Group   4 Type Ru  : 22s15p9d1f contracted to 15s10p5d1f pattern {811111111111111/6111111111/51111/1}

Atom   0C    basis set group =>   1
Atom   1C    basis set group =>   1
Atom   2C    basis set group =>   1
Atom   3C    basis set group =>   1
Atom   4C    basis set group =>   1
Atom   5C    basis set group =>   1
Atom   6C    basis set group =>   1
Atom   7C    basis set group =>   1
Atom   8H    basis set group =>   2
Atom   9H    basis set group =>   2
Atom  10H    basis set group =>   2
Atom  11H    basis set group =>   2
Atom  12H    basis set group =>   2
Atom  13H    basis set group =>   2
Atom  14C    basis set group =>   1
Atom  15C    basis set group =>   1
Atom  16C    basis set group =>   1
Atom  17C    basis set group =>   1
Atom  18C    basis set group =>   1
Atom  19C    basis set group =>   1
Atom  20C    basis set group =>   1
Atom  21C    basis set group =>   1
Atom  22H    basis set group =>   2
Atom  23H    basis set group =>   2
Atom  24H    basis set group =>   2
Atom  25H    basis set group =>   2
Atom  26H    basis set group =>   2
Atom  27H    basis set group =>   2
Atom  28C    basis set group =>   1
Atom  29C    basis set group =>   1
Atom  30C    basis set group =>   1
Atom  31C    basis set group =>   1
Atom  32C    basis set group =>   1
Atom  33C    basis set group =>   1
Atom  34C    basis set group =>   1
Atom  35C    basis set group =>   1
Atom  36H    basis set group =>   2
Atom  37H    basis set group =>   2
Atom  38H    basis set group =>   2
Atom  39H    basis set group =>   2
Atom  40N    basis set group =>   3
Atom  41N    basis set group =>   3
Atom  42N    basis set group =>   3
Atom  43N    basis set group =>   3
Atom  44N    basis set group =>   3
Atom  45N    basis set group =>   3
Atom  46Ru   basis set group =>   4
Atom  47H    basis set group =>   2
Atom  48H    basis set group =>   2
Atom  49C    basis set group =>   1
Atom  50C    basis set group =>   1
Atom  51C    basis set group =>   1
Atom  52C    basis set group =>   1
Atom  53C    basis set group =>   1
Atom  54C    basis set group =>   1
Atom  55C    basis set group =>   1
Atom  56C    basis set group =>   1
Atom  57C    basis set group =>   1
Atom  58C    basis set group =>   1
Atom  59H    basis set group =>   2
Atom  60C    basis set group =>   1
Atom  61C    basis set group =>   1
Atom  62H    basis set group =>   2
Atom  63H    basis set group =>   2
Atom  64C    basis set group =>   1
Atom  65C    basis set group =>   1
Atom  66C    basis set group =>   1
Atom  67C    basis set group =>   1
Atom  68H    basis set group =>   2
Atom  69C    basis set group =>   1
Atom  70C    basis set group =>   1
Atom  71H    basis set group =>   2
Atom  72H    basis set group =>   2
Atom  73C    basis set group =>   1
Atom  74C    basis set group =>   1
Atom  75C    basis set group =>   1
Atom  76C    basis set group =>   1
Atom  77C    basis set group =>   1
Atom  78H    basis set group =>   2
Atom  79C    basis set group =>   1
Atom  80H    basis set group =>   2
Atom  81H    basis set group =>   2
Atom  82C    basis set group =>   1
Atom  83C    basis set group =>   1
Atom  84C    basis set group =>   1
Atom  85C    basis set group =>   1
Atom  86C    basis set group =>   1
Atom  87H    basis set group =>   2
Atom  88C    basis set group =>   1
Atom  89H    basis set group =>   2
Atom  90H    basis set group =>   2
Atom  91C    basis set group =>   1
Atom  92C    basis set group =>   1
Atom  93C    basis set group =>   1
Atom  94C    basis set group =>   1
Atom  95C    basis set group =>   1
Atom  96H    basis set group =>   2
Atom  97C    basis set group =>   1
Atom  98H    basis set group =>   2
Atom  99H    basis set group =>   2
Atom 100C    basis set group =>   1
Atom 101C    basis set group =>   1
Atom 102C    basis set group =>   1
Atom 103C    basis set group =>   1
Atom 104C    basis set group =>   1
Atom 105H    basis set group =>   2
Atom 106C    basis set group =>   1
Atom 107H    basis set group =>   2
Atom 108H    basis set group =>   2
Atom 109H    basis set group =>   2
Atom 110H    basis set group =>   2
Atom 111H    basis set group =>   2
Atom 112H    basis set group =>   2
Atom 113H    basis set group =>   2
Atom 114H    basis set group =>   2
Atom 115C    basis set group =>   1
Atom 116H    basis set group =>   2
Atom 117H    basis set group =>   2
Atom 118H    basis set group =>   2
Atom 119C    basis set group =>   1
Atom 120H    basis set group =>   2
Atom 121H    basis set group =>   2
Atom 122H    basis set group =>   2
Atom 123C    basis set group =>   1
Atom 124H    basis set group =>   2
Atom 125H    basis set group =>   2
Atom 126H    basis set group =>   2
Atom 127C    basis set group =>   1
Atom 128H    basis set group =>   2
Atom 129H    basis set group =>   2
Atom 130H    basis set group =>   2
Atom 131C    basis set group =>   1
Atom 132H    basis set group =>   2
Atom 133H    basis set group =>   2
Atom 134H    basis set group =>   2
Atom 135C    basis set group =>   1
Atom 136H    basis set group =>   2
Atom 137H    basis set group =>   2
Atom 138H    basis set group =>   2
---------------------------------
AUXILIARY/J BASIS SET INFORMATION
---------------------------------
There are 4 groups of distinct atoms

 Group   1 Type C   : 12s5p4d2f1g contracted to 12s5p4d2f1g pattern {111111111111/11111/1111/11/1}
 Group   2 Type H   : 5s2p1d contracted to 5s2p1d pattern {11111/11/1}
 Group   3 Type N   : 12s5p4d2f1g contracted to 12s5p4d2f1g pattern {111111111111/11111/1111/11/1}
 Group   4 Type Ru  : 23s7p6d3f4g contracted to 23s7p6d3f4g pattern {11111111111111111111111/1111111/111111/111/1111}

Atom   0C    basis set group =>   1
Atom   1C    basis set group =>   1
Atom   2C    basis set group =>   1
Atom   3C    basis set group =>   1
Atom   4C    basis set group =>   1
Atom   5C    basis set group =>   1
Atom   6C    basis set group =>   1
Atom   7C    basis set group =>   1
Atom   8H    basis set group =>   2
Atom   9H    basis set group =>   2
Atom  10H    basis set group =>   2
Atom  11H    basis set group =>   2
Atom  12H    basis set group =>   2
Atom  13H    basis set group =>   2
Atom  14C    basis set group =>   1
Atom  15C    basis set group =>   1
Atom  16C    basis set group =>   1
Atom  17C    basis set group =>   1
Atom  18C    basis set group =>   1
Atom  19C    basis set group =>   1
Atom  20C    basis set group =>   1
Atom  21C    basis set group =>   1
Atom  22H    basis set group =>   2
Atom  23H    basis set group =>   2
Atom  24H    basis set group =>   2
Atom  25H    basis set group =>   2
Atom  26H    basis set group =>   2
Atom  27H    basis set group =>   2
Atom  28C    basis set group =>   1
Atom  29C    basis set group =>   1
Atom  30C    basis set group =>   1
Atom  31C    basis set group =>   1
Atom  32C    basis set group =>   1
Atom  33C    basis set group =>   1
Atom  34C    basis set group =>   1
Atom  35C    basis set group =>   1
Atom  36H    basis set group =>   2
Atom  37H    basis set group =>   2
Atom  38H    basis set group =>   2
Atom  39H    basis set group =>   2
Atom  40N    basis set group =>   3
Atom  41N    basis set group =>   3
Atom  42N    basis set group =>   3
Atom  43N    basis set group =>   3
Atom  44N    basis set group =>   3
Atom  45N    basis set group =>   3
Atom  46Ru   basis set group =>   4
Atom  47H    basis set group =>   2
Atom  48H    basis set group =>   2
Atom  49C    basis set group =>   1
Atom  50C    basis set group =>   1
Atom  51C    basis set group =>   1
Atom  52C    basis set group =>   1
Atom  53C    basis set group =>   1
Atom  54C    basis set group =>   1
Atom  55C    basis set group =>   1
Atom  56C    basis set group =>   1
Atom  57C    basis set group =>   1
Atom  58C    basis set group =>   1
Atom  59H    basis set group =>   2
Atom  60C    basis set group =>   1
Atom  61C    basis set group =>   1
Atom  62H    basis set group =>   2
Atom  63H    basis set group =>   2
Atom  64C    basis set group =>   1
Atom  65C    basis set group =>   1
Atom  66C    basis set group =>   1
Atom  67C    basis set group =>   1
Atom  68H    basis set group =>   2
Atom  69C    basis set group =>   1
Atom  70C    basis set group =>   1
Atom  71H    basis set group =>   2
Atom  72H    basis set group =>   2
Atom  73C    basis set group =>   1
Atom  74C    basis set group =>   1
Atom  75C    basis set group =>   1
Atom  76C    basis set group =>   1
Atom  77C    basis set group =>   1
Atom  78H    basis set group =>   2
Atom  79C    basis set group =>   1
Atom  80H    basis set group =>   2
Atom  81H    basis set group =>   2
Atom  82C    basis set group =>   1
Atom  83C    basis set group =>   1
Atom  84C    basis set group =>   1
Atom  85C    basis set group =>   1
Atom  86C    basis set group =>   1
Atom  87H    basis set group =>   2
Atom  88C    basis set group =>   1
Atom  89H    basis set group =>   2
Atom  90H    basis set group =>   2
Atom  91C    basis set group =>   1
Atom  92C    basis set group =>   1
Atom  93C    basis set group =>   1
Atom  94C    basis set group =>   1
Atom  95C    basis set group =>   1
Atom  96H    basis set group =>   2
Atom  97C    basis set group =>   1
Atom  98H    basis set group =>   2
Atom  99H    basis set group =>   2
Atom 100C    basis set group =>   1
Atom 101C    basis set group =>   1
Atom 102C    basis set group =>   1
Atom 103C    basis set group =>   1
Atom 104C    basis set group =>   1
Atom 105H    basis set group =>   2
Atom 106C    basis set group =>   1
Atom 107H    basis set group =>   2
Atom 108H    basis set group =>   2
Atom 109H    basis set group =>   2
Atom 110H    basis set group =>   2
Atom 111H    basis set group =>   2
Atom 112H    basis set group =>   2
Atom 113H    basis set group =>   2
Atom 114H    basis set group =>   2
Atom 115C    basis set group =>   1
Atom 116H    basis set group =>   2
Atom 117H    basis set group =>   2
Atom 118H    basis set group =>   2
Atom 119C    basis set group =>   1
Atom 120H    basis set group =>   2
Atom 121H    basis set group =>   2
Atom 122H    basis set group =>   2
Atom 123C    basis set group =>   1
Atom 124H    basis set group =>   2
Atom 125H    basis set group =>   2
Atom 126H    basis set group =>   2
Atom 127C    basis set group =>   1
Atom 128H    basis set group =>   2
Atom 129H    basis set group =>   2
Atom 130H    basis set group =>   2
Atom 131C    basis set group =>   1
Atom 132H    basis set group =>   2
Atom 133H    basis set group =>   2
Atom 134H    basis set group =>   2
Atom 135C    basis set group =>   1
Atom 136H    basis set group =>   2
Atom 137H    basis set group =>   2
Atom 138H    basis set group =>   2


           ************************************************************
           *        Program running with 8 parallel MPI-processes     *
           *              working on a common directory               *
           ************************************************************
------------------------------------------------------------------------------
                           ORCA GTO INTEGRAL CALCULATION
                           -- RI-GTO INTEGRALS CHOSEN --
------------------------------------------------------------------------------
------------------------------------------------------------------------------
                   ___                                                        
                  /   \      - P O W E R E D   B Y -                         
                 /     \                                                     
                 |  |  |   _    _      __       _____    __    __             
                 |  |  |  | |  | |    /  \     |  _  \  |  |  /  |          
                  \  \/   | |  | |   /    \    | | | |  |  | /  /          
                 / \  \   | |__| |  /  /\  \   | |_| |  |  |/  /          
                |  |  |   |  __  | /  /__\  \  |    /   |      \           
                |  |  |   | |  | | |   __   |  |    \   |  |\   \          
                \     /   | |  | | |  |  |  |  | |\  \  |  | \   \       
                 \___/    |_|  |_| |__|  |__|  |_| \__\ |__|  \__/        
                                                                              
                      - O R C A' S   B I G   F R I E N D -                    
                                      &                                       
                       - I N T E G R A L  F E E D E R -                       
                                                                              
 v1 FN, 2020, v2 2021                                                         
------------------------------------------------------------------------------


Reading SHARK input file Ru-arylbpy_3_SOC-wB97XD_def2SVP.SHARKINP.tmp ... ok
----------------------
SHARK INTEGRAL PACKAGE
----------------------

Number of atoms                             ...    139
Number of basis functions                   ...   1469
Number of shells                            ...    679
Maximum angular momentum                    ...      3
Integral batch strategy                     ... SHARK/LIBINT Hybrid
RI-J (if used) integral strategy            ... SPLIT-RIJ (Revised 2003 algorithm where possible)
Printlevel                                  ...      1
Contraction scheme used                     ... SEGMENTED contraction
Coulomb Range Separation                    ... NOT USED
Exchange Range Separation                   ... Long Range
   Mu parameter                             ...  0.250000
   Scaling (regular/separated)              ...  0.195728  0.804272
Finite Nucleus Model                        ... NOT USED
Auxiliary Coulomb fitting basis             ... AVAILABLE
   # of basis functions in Aux-J            ...   6551
   # of shells in Aux-J                     ...   2395
   Maximum angular momentum in Aux-J        ...      4
Auxiliary J/K fitting basis                 ... NOT available
Auxiliary Correlation fitting basis         ... NOT available
Auxiliary 'external' fitting basis          ... NOT available
Integral threshold                          ...     1.000000e-10
Primitive cut-off                           ...     1.000000e-11
Primitive pair pre-selection threshold      ...     1.000000e-11

Calculating pre-screening integrals         ... done (  0.1 sec) Dimension = 679
Organizing shell pair data                  ... done (  0.3 sec)
Shell pair information
Total number of shell pairs                 ...    230860
Shell pairs after pre-screening             ...     72218
Total number of primitive shell pairs       ...    824933
Primitive shell pairs kept                  ...    146012
          la=0 lb=0:  21732 shell pairs
          la=1 lb=0:  27310 shell pairs
          la=1 lb=1:   8701 shell pairs
          la=2 lb=0:   8288 shell pairs
          la=2 lb=1:   5177 shell pairs
          la=2 lb=2:    713 shell pairs
          la=3 lb=0:    159 shell pairs
          la=3 lb=1:    102 shell pairs
          la=3 lb=2:     35 shell pairs
          la=3 lb=3:      1 shell pairs

Calculating one electron integrals          ... done (  0.2 sec)
Calculating RI/J V-Matrix + Cholesky decomp.... done (  2.9 sec)
Calculating Nuclear repulsion               ... done (  0.0 sec) ENN=  14014.383296203643 Eh

SHARK setup successfully completed in   3.9 seconds

Maximum memory used throughout the entire GTOINT-calculation: 226.0 MB


           ************************************************************
           *        Program running with 8 parallel MPI-processes     *
           *              working on a common directory               *
           ************************************************************
------------------------------------------------------------------------------
                          ORCA RELATIVISTIC HAMILTONIAN
------------------------------------------------------------------------------

Relativistic Method            ... ZORA(MP)
Treatment of potential         ... Van Wuellen
Nucleus model                  ... Point Nucleus
Speed of light used            ... 137.03598950000000


            *************************************************
            *         ZERO ORDER REGULAR APPROXIMATION      *
            *                     ZORA(MP)                  *
            *            Programmed by FN according to      *
            *                   C. van Wuellen              *
            *       J. Chem. Phys. (1998) vol 109, 392-399  *
            *************************************************

Terms included in model potential: +V(e,N)+V(C)+V(Xa)+V(VWN-V)
Basis function cutoff value   ... 1.000000e-10
Loading the fitted atomic densities (ZORA)   ... done
Calculating the cutoffs                      ... done
Number of fit functions                      ... 1187
Setting up the integration grid ... done

Maximum memory used throughout the entire REL-calculation: 180.9 MB


           ************************************************************
           *        Program running with 8 parallel MPI-processes     *
           *              working on a common directory               *
           ************************************************************
-------------------------------------------------------------------------------
                                 ORCA SCF
-------------------------------------------------------------------------------

------------
SCF SETTINGS
------------
Hamiltonian:
 Density Functional     Method          .... DFT(GTOs)
 Exchange Functional    Exchange        .... WB97X-D3
 Correlation Functional Correlation     .... WB97X-D3
 Gradients option       PostSCFGGA      .... off
 Hybrid DFT is turned on
   Fraction HF Exchange ScalHFX         ....  0.195728
   Scaling of DF-GGA-X  ScalDFX         ....  0.000000
   Scaling of DF-GGA-C  ScalDFC         ....  1.000000
   Scaling of DF-LDA-C  ScalLDAC        ....  1.000000
   Perturbative correction              ....  0.000000
   Density functional embedding theory  .... OFF
 Long-range corrected/Screened/Range-Separated Hybrid DFT is turned on
   Amount of maximum screened exact exchange              ....  0.804272
   Range separation parameter mu (erf(mu*r12)/r12)        ....  0.250000
 RI-approximation to the Coulomb term is turned on
   Number of AuxJ basis functions       .... 6551
   RIJ-COSX (HFX calculated with COS-X)).... on

Relativistic Settings:
 Scalar relativistic method             .... ZORA
 Speed of light used       Velit        ....       137.035989
Orbital energies will be scaled


General Settings:
 Integral files         IntName         .... Ru-arylbpy_3_SOC-wB97XD_def2SVP
 Hartree-Fock type      HFTyp           .... RHF
 Total Charge           Charge          ....    2
 Multiplicity           Mult            ....    1
 Number of Electrons    NEL             ....  576
 Basis Dimension        Dim             .... 1469
 Nuclear Repulsion      ENuc            ....  14014.3832962036 Eh

Convergence Acceleration:
 DIIS                   CNVDIIS         .... on
   Start iteration      DIISMaxIt       ....    12
   Startup error        DIISStart       ....  0.200000
   # of expansion vecs  DIISMaxEq       ....     5
   Bias factor          DIISBfac        ....   1.050
   Max. coefficient     DIISMaxC        ....  10.000
 Trust-Rad. Augm. Hess. CNVTRAH         .... auto
   Auto Start mean grad. ratio tolernc. ....  1.125000
   Auto Start start iteration           ....    20
   Auto Start num. interpolation iter.  ....    10
   Max. Number of Micro iterations      ....    16
   Max. Number of Macro iterations      .... Maxiter - #DIIS iter
   Number of Davidson start vectors     ....     2
   Converg. threshold I  (grad. norm)   ....   5.000e-05
   Converg. threshold II (energy diff.) ....   1.000e-06
   Grad. Scal. Fac. for Micro threshold ....   0.100
   Minimum threshold for Micro iter.    ....   0.010
   NR start threshold (gradient norm)   ....   0.001
   Initial trust radius                 ....   0.400
   Minimum AH scaling param. (alpha)    ....   1.000
   Maximum AH scaling param. (alpha)    .... 1000.000
   Orbital update algorithm             .... Taylor
   White noise on init. David. guess    .... on
   Maximum white noise                  ....   0.010
   Quad. conv. algorithm                .... NR
 SOSCF                  CNVSOSCF        .... off
 Level Shifting         CNVShift        .... on
   Level shift para.    LevelShift      ....    0.2500
   Turn off err/grad.   ShiftErr        ....    0.0010
 Zerner damping         CNVZerner       .... off
 Static damping         CNVDamp         .... on
   Fraction old density DampFac         ....    0.7000
   Max. Damping (<1)    DampMax         ....    0.9800
   Min. Damping (>=0)   DampMin         ....    0.0000
   Turn off err/grad.   DampErr         ....    0.1000
 Fernandez-Rico         CNVRico         .... off

SCF Procedure:
 Maximum # iterations   MaxIter         ....   125
 SCF integral mode      SCFMode         .... Direct
   Integral package                     .... SHARK and LIBINT hybrid scheme
 Reset frequency        DirectResetFreq ....    20
 Integral Threshold     Thresh          ....  1.000e-10 Eh
 Primitive CutOff       TCut            ....  1.000e-11 Eh

Convergence Tolerance:
 Convergence Check Mode ConvCheckMode   .... Total+1el-Energy
 Convergence forced     ConvForced      .... 1
 Energy Change          TolE            ....  1.000e-06 Eh
 1-El. energy change                    ....  1.000e-03 Eh
 DIIS Error             TolErr          ....  1.000e-06


Diagonalization of the overlap matrix:
Smallest eigenvalue                        ... 2.835e-04
Time for diagonalization                   ...    0.340 sec
Threshold for overlap eigenvalues          ... 1.000e-08
Number of eigenvalues below threshold      ... 0
Time for construction of square roots      ...    0.261 sec
Total time needed                          ...    0.607 sec

Time for model grid setup =    2.005 sec

------------------------------
INITIAL GUESS: MODEL POTENTIAL
------------------------------
Loading ZORA relativistic densities                ... done
Calculating cut-offs                               ... done
Initializing the effective Hamiltonian             ... done
Setting up the integral package (SHARK)            ... done
Starting the Coulomb interaction                   ... done (   1.8 sec)
Reading the grid                                   ... done
Mapping shells                                     ... done
Starting the XC term evaluation                    ... done (   0.4 sec)
  promolecular density results
     # of electrons  =    577.958153800
     EX              =   -560.786881477
     EC              =    -20.227444029
     EX+EC           =   -581.014325507
Transforming the Hamiltonian                       ... done (   0.1 sec)
Diagonalizing the Hamiltonian                      ... done (   0.3 sec)
Back transforming the eigenvectors                 ... done (   0.1 sec)
Now organizing SCF variables                       ... done
                      ------------------
                      INITIAL GUESS DONE (   4.8 sec)
                      ------------------
-------------------
DFT GRID GENERATION
-------------------

General Integration Accuracy     IntAcc      ... 4.388
Radial Grid Type                 RadialGrid  ... OptM3 with GC (2021)
Angular Grid (max. ang.)         AngularGrid ... 4 (Lebedev-302)
Angular grid pruning method      GridPruning ... 4 (adaptive)
Weight generation scheme         WeightScheme... Becke
Basis function cutoff            BFCut       ... 1.0000e-10
Integration weight cutoff        WCut        ... 1.0000e-14
[...]
   0  57   28293.2    353.4      3.07755 ( -0.00155,  0.00183) ( -0.00631,  0.00743) (  0.00928, -0.01093)
   0  58   28480.8    351.1      7.33657 (  0.00261, -0.02775) ( -0.02159,  0.22997) (  0.00164, -0.01746)
   0  59   28487.5    351.0      7.13261 ( -0.18607,  0.14179) ( -0.02240,  0.01707) (  0.00259, -0.00197)
   0  60   28829.4    346.9      0.01775 (  0.00156,  0.00589) (  0.00063,  0.00237) (  0.00061,  0.00232)
   0  61   28878.8    346.3     -9.08180 (  0.00055, -0.00863) ( -0.00374,  0.05885) (  0.00046, -0.00729)
   0  62   28901.1    346.0     -5.39070 ( -0.00132, -0.04137) ( -0.00052, -0.01637) (  0.00004,  0.00110)
   0  63   28904.5    346.0     -3.05469 ( -0.01717,  0.02477) ( -0.00021,  0.00030) ( -0.00013,  0.00019)
   0  64   28931.6    345.6     -0.10660 (  0.02456,  0.01234) (  0.02418,  0.01215) (  0.00961,  0.00483)
   0  65   28935.1    345.6     -0.55194 (  0.01624,  0.01337) ( -0.01082, -0.00891) ( -0.00676, -0.00556)
   0  66   28957.2    345.3      2.47236 (  0.00869,  0.06980) (  0.00078,  0.00626) ( -0.00043, -0.00346)
   0  67   28967.6    345.2     -0.38331 ( -0.00380, -0.00938) ( -0.00853, -0.02103) (  0.00221,  0.00545)
   0  68   28974.5    345.1     -0.15403 (  0.01596, -0.02472) ( -0.02513,  0.03893) (  0.00748, -0.01158)
   0  69   29085.0    343.8     -4.62689 (  0.00614, -0.00544) (  0.03185, -0.02824) (  0.00459, -0.00407)
   0  70   29105.1    343.6     -2.68625 (  0.02966, -0.00107) ( -0.00096,  0.00003) ( -0.00686,  0.00025)
   0  71   29337.6    340.9     -0.00084 ( -0.00076, -0.00520) ( -0.00044, -0.00300) (  0.00013,  0.00091)
   0  72   29789.7    335.7     -3.85773 (  0.14563, -0.02245) ( -0.01410,  0.00217) ( -0.00187,  0.00029)
   0  73   29817.8    335.4     -3.69028 (  0.01158,  0.01304) (  0.08767,  0.09869) ( -0.00058, -0.00065)
   0  74   30032.0    333.0      8.63529 ( -0.09808, -0.00791) (  0.01104,  0.00089) ( -0.00091, -0.00007)
   0  75   30049.7    332.8      9.27724 (  0.00145, -0.00900) (  0.01815, -0.11270) ( -0.00079,  0.00491)
   0  76   30127.0    331.9      0.89166 ( -0.00005, -0.00022) ( -0.00120, -0.00545) ( -0.01339, -0.06085)
   0  77   30149.2    331.7      0.01385 ( -0.00186, -0.00123) (  0.00183,  0.00121) (  0.00005,  0.00003)
   0  78   30539.3    327.4      0.25862 ( -0.00050,  0.00066) (  0.00042, -0.00056) ( -0.02589,  0.03443)
   0  79   30606.3    326.7     -2.14298 (  0.01752, -0.02880) (  0.01380, -0.02267) (  0.00047, -0.00077)
   0  80   30608.5    326.7     -2.02781 ( -0.01407,  0.01717) (  0.02092, -0.02552) (  0.00204, -0.00249)
   0  81   30652.6    326.2      0.01397 (  0.00091,  0.00069) ( -0.00121, -0.00092) ( -0.00519, -0.00393)
   0  82   32177.5    310.8    -51.37724 (  0.19752,  0.17624) (  0.50229,  0.44818) ( -0.00560, -0.00499)
   0  83   32246.8    310.1    -42.08712 (  0.10440, -0.66045) ( -0.04096,  0.25914) ( -0.00440,  0.02783)
   0  84   32583.5    306.9     -0.19906 ( -0.00541,  0.00298) (  0.00734, -0.00405) ( -0.01010,  0.00557)
   0  85   32584.7    306.9     -0.00044 (  0.00050,  0.00084) (  0.00039,  0.00066) ( -0.00096, -0.00162)
   0  86   32617.2    306.6      0.13577 (  0.01046,  0.01615) ( -0.00124, -0.00192) ( -0.00254, -0.00393)
   0  87   32620.6    306.6      0.08061 (  0.00141, -0.00089) (  0.00787, -0.00496) (  0.00255, -0.00161)
   0  88   32656.8    306.2     -0.14459 (  0.00285, -0.00739) (  0.01015, -0.02637) (  0.00011, -0.00028)
   0  89   32657.0    306.2     -0.19771 (  0.03507,  0.01539) ( -0.00948, -0.00416) ( -0.00246, -0.00108)
   0  90   33103.6    302.1     -1.49733 (  0.00283,  0.00452) (  0.00212,  0.00339) (  0.10300,  0.16442)
   0  91   33107.5    302.0      0.17405 ( -0.00205, -0.00352) (  0.00695,  0.01195) (  0.00284,  0.00489)
   0  92   33107.9    302.0      0.19396 ( -0.01349, -0.00594) ( -0.00416, -0.00183) (  0.00469,  0.00206)
   0  93   33160.6    301.6    -16.11575 (  0.01867,  0.01366) (  0.00166,  0.00121) (  0.53661,  0.39261)
   0  94   33164.3    301.5      0.00346 ( -0.00123,  0.00032) ( -0.00135,  0.00036) ( -0.01477,  0.00390)
   0  95   33165.3    301.5     -1.80681 (  0.00767,  0.01371) ( -0.00052, -0.00094) (  0.11307,  0.20211)
   0  96   33168.5    301.5     -1.67436 (  0.00287,  0.00805) ( -0.00012, -0.00034) (  0.07335,  0.20581)
   0  97   33303.8    300.3      0.00118 ( -0.00196,  0.00110) (  0.00122, -0.00069) ( -0.00034,  0.00019)
   0  98   33324.8    300.1     -1.15386 ( -0.00245, -0.00542) ( -0.00212, -0.00467) ( -0.06559, -0.14480)
   0  99   33327.0    300.1     -0.07828 (  0.00081,  0.00241) (  0.00227,  0.00679) (  0.01696,  0.05061)
   0 100   33334.8    300.0     -0.00099 ( -0.00094, -0.00028) (  0.00236,  0.00071) ( -0.00396, -0.00119)
   0 101   33347.2    299.9      0.19082 ( -0.00755,  0.02709) (  0.00062, -0.00222) (  0.00044, -0.00158)
   0 102   33347.8    299.9      0.11248 (  0.00004, -0.00058) ( -0.00201,  0.02585) (  0.00290, -0.03722)
   0 103   35096.9    284.9     -1.19771 (  0.00079, -0.00120) (  0.00588, -0.00891) (  0.00100, -0.00151)
   0 104   35097.5    284.9     -1.75459 (  0.00209,  0.01118) ( -0.00114, -0.00609) ( -0.00011, -0.00060)
   0 105   35139.1    284.6     -0.00000 ( -0.00008, -0.00012) (  0.00004,  0.00006) ( -0.00012, -0.00018)
   0 106   35321.4    283.1    -31.06035 ( -0.01117,  0.00608) ( -0.01042,  0.00567) (  0.10330, -0.05620)
   0 107   35637.4    280.6     -0.00052 (  0.00612,  0.00620) ( -0.00076, -0.00077) (  0.00023,  0.00024)
   0 108   35643.0    280.6     -0.22119 ( -0.01042,  0.00471) ( -0.01024,  0.00462) ( -0.00119,  0.00054)
   0 109   35655.3    280.5     -0.40292 ( -0.01086, -0.00298) (  0.01730,  0.00475) ( -0.00512, -0.00141)
   0 110   35668.4    280.4     -0.39435 ( -0.00037,  0.00021) ( -0.00576,  0.00331) ( -0.01423,  0.00817)
   0 111   35670.9    280.3      0.06046 ( -0.00138, -0.00333) ( -0.00211, -0.00507) (  0.00023,  0.00055)
   0 112   35688.9    280.2     -4.15401 ( -0.00517,  0.00573) (  0.00915, -0.01014) (  0.03420, -0.03791)
   0 113   35709.8    280.0      0.76253 (  0.01940,  0.02655) (  0.00017,  0.00023) ( -0.00063, -0.00086)
   0 114   35713.3    280.0      0.46865 ( -0.00018,  0.00040) ( -0.01250,  0.02740) (  0.00564, -0.01236)
   0 115   35746.0    279.8     -5.31825 (  0.00478,  0.00015) (  0.01349,  0.00042) ( -0.07568, -0.00237)
   0 116   36000.2    277.8    -35.95101 ( -0.05259, -0.02332) ( -0.04658, -0.02065) ( -0.00204, -0.00091)
   0 117   36005.0    277.7    -32.01543 ( -0.02058, -0.04428) (  0.02463,  0.05299) (  0.00004,  0.00008)
   0 118   36015.3    277.7     -3.14599 ( -0.00661, -0.02106) ( -0.00128, -0.00409) ( -0.00030, -0.00097)
   0 119   36019.1    277.6     -0.40707 (  0.00012, -0.00104) (  0.00083, -0.00739) ( -0.00082,  0.00735)
   0 120   36032.0    277.5     -4.74113 ( -0.00052,  0.00503) (  0.00289, -0.02791) ( -0.00145,  0.01399)
   0 121   36033.5    277.5     -0.72560 ( -0.01055,  0.00204) (  0.00223, -0.00043) ( -0.00484,  0.00094)
   0 122   36045.7    277.4    -49.19479 ( -0.00282,  0.03545) (  0.00691, -0.08684) ( -0.00025,  0.00316)
   0 123   36054.4    277.4    -31.12303 (  0.06078,  0.01873) (  0.02643,  0.00814) (  0.00207,  0.00064)
   0 124   36303.7    275.5     -0.00082 ( -0.00008, -0.00025) (  0.00015,  0.00049) (  0.00001,  0.00004)
   0 125   36328.6    275.3    -11.25255 (  0.03509, -0.00836) (  0.04384, -0.01044) (  0.00061, -0.00015)
   0 126   36331.0    275.2    -12.94517 (  0.00909,  0.04151) ( -0.00910, -0.04158) ( -0.00001, -0.00002)
   0 127   36586.7    273.3     -3.38196 (  0.00443, -0.00137) ( -0.00883,  0.00273) (  0.04898, -0.01513)
   0 128   36596.4    273.3      0.34431 (  0.00883, -0.00345) (  0.00771, -0.00301) ( -0.00031,  0.00012)
   0 129   36620.7    273.1      1.59666 (  0.02128,  0.05546) ( -0.01163, -0.03031) ( -0.00018, -0.00047)
   0 130   36631.0    273.0      3.80857 ( -0.01169,  0.00934) (  0.01398, -0.01117) (  0.00455, -0.00364)
   0 131   36631.7    273.0      2.53279 (  0.02390, -0.01475) (  0.03662, -0.02260) ( -0.00224,  0.00138)
   0 132   36637.8    272.9     -3.06466 (  0.01404, -0.01340) (  0.02814, -0.02686) (  0.00118, -0.00113)
   0 133   36697.1    272.5     93.87913 ( -0.03240,  0.04629) ( -0.11264,  0.16091) ( -0.00513,  0.00733)
   0 134   36702.1    272.5     88.58596 (  0.11819, -0.16717) ( -0.03739,  0.05288) ( -0.00258,  0.00365)
   0 135   36826.1    271.5      0.00223 ( -0.00536,  0.00474) (  0.00018, -0.00016) (  0.00189, -0.00167)
   0 136   36858.2    271.3     -2.91316 ( -0.08676, -0.07460) (  0.08221,  0.07068) ( -0.00902, -0.00775)
   0 137   36867.3    271.2      4.17831 ( -0.03792,  0.14375) ( -0.02935,  0.11128) ( -0.00029,  0.00111)
   0 138   36989.1    270.3     90.00299 ( -0.00613,  0.02131) ( -0.08442,  0.29327) (  0.00046, -0.00159)
   0 139   36997.2    270.3     78.53744 ( -0.28828,  0.05585) (  0.03201, -0.00620) (  0.01193, -0.00231)
   0 140   37031.3    270.0      0.25000 (  0.01125,  0.00014) ( -0.03170, -0.00040) ( -0.00147, -0.00002)
   0 141   37051.9    269.9     -2.66222 (  0.01198, -0.00523) (  0.00236, -0.00103) ( -0.01466,  0.00640)
   0 142   37085.8    269.6     -0.46452 (  0.06569,  0.03549) ( -0.01156, -0.00625) ( -0.00160, -0.00086)
   0 143   37089.8    269.6     -0.74872 (  0.00003, -0.00004) (  0.05008, -0.05890) ( -0.00327,  0.00385)
   0 144   37097.1    269.6     -2.92953 ( -0.02136,  0.01135) ( -0.02480,  0.01318) (  0.00438, -0.00233)
   0 145   37097.4    269.6     -1.99684 ( -0.01722, -0.02022) (  0.00911,  0.01069) ( -0.00125, -0.00146)
   0 146   37297.8    268.1    -272.70806 ( -0.11844,  0.16844) ( -0.10746,  0.15282) (  0.02907, -0.04135)
   0 147   37314.2    268.0    -239.09463 ( -0.01688,  0.17061) (  0.01665, -0.16827) ( -0.00226,  0.02289)
   0 148   37388.9    267.5     -0.08408 (  0.00193,  0.00445) ( -0.00137, -0.00317) (  0.00131,  0.00302)
   0 149   37389.8    267.5     -5.18148 (  0.02077,  0.02064) ( -0.00769, -0.00764) (  0.00098,  0.00098)
   0 150   37392.4    267.4     -3.74973 ( -0.00003, -0.00018) ( -0.00473, -0.02989) (  0.00302,  0.01907)
   0 151   37401.1    267.4     -0.30560 (  0.00855, -0.00158) ( -0.00050,  0.00009) ( -0.00048,  0.00009)
   0 152   37404.7    267.3     -0.04433 (  0.00150,  0.00031) (  0.00257,  0.00054) (  0.00256,  0.00054)
   0 153   37406.6    267.3     -4.97817 (  0.01407, -0.01887) (  0.01382, -0.01853) ( -0.00861,  0.01154)
   0 154   37428.5    267.2     -0.52340 ( -0.00299,  0.00902) (  0.00638, -0.01926) (  0.00352, -0.01062)
   0 155   37434.6    267.1     -2.72775 (  0.02015, -0.00155) (  0.01232, -0.00095) ( -0.00263,  0.00020)
   0 156   37436.0    267.1     -0.53885 ( -0.00512,  0.00050) ( -0.00639,  0.00062) (  0.00567, -0.00055)
   0 157   37452.0    267.0      1.92501 ( -0.00241,  0.03083) (  0.00078, -0.01003) (  0.00284, -0.03630)
   0 158   37453.3    267.0     -0.33204 (  0.00548, -0.00120) ( -0.00372,  0.00082) (  0.00479, -0.00105)
   0 159   37457.0    267.0     -7.14097 (  0.00793, -0.00836) (  0.02384, -0.02512) (  0.00136, -0.00143)
   0 160   37481.0    266.8     -0.49773 (  0.02743, -0.01545) (  0.00158, -0.00089) (  0.03161, -0.01780)
   0 161   37486.5    266.8    220.60742 (  0.02242, -0.00830) (  0.01993, -0.00738) (  0.17867, -0.06614)
   0 162   37491.0    266.7     29.18040 ( -0.00250,  0.00122) ( -0.00362,  0.00177) ( -0.06306,  0.03075)
   0 163   37496.9    266.7    167.51891 ( -0.02537,  0.01247) ( -0.04159,  0.02044) ( -0.15022,  0.07382)
   0 164   37498.3    266.7      2.40675 ( -0.01558,  0.00308) (  0.00552, -0.00109) ( -0.02454,  0.00485)
   0 165   37502.2    266.7     15.42084 ( -0.00479,  0.00263) ( -0.00750,  0.00412) ( -0.04646,  0.02554)
   0 166   37503.8    266.6      4.46449 ( -0.00927,  0.00186) ( -0.00011,  0.00002) ( -0.02998,  0.00603)
   0 167   37643.3    265.7     28.94017 (  0.02187, -0.00394) (  0.01075, -0.00194) (  0.07894, -0.01423)
   0 168   37698.9    265.3      0.15586 (  0.00107, -0.00015) (  0.00083, -0.00012) ( -0.00550,  0.00078)
   0 169   37699.0    265.3      0.39498 ( -0.00006,  0.00245) ( -0.00003,  0.00140) ( -0.00022,  0.00901)
   0 170   37699.2    265.3      0.65287 ( -0.00116, -0.00159) ( -0.00043, -0.00059) ( -0.00719, -0.00986)
   0 171   37719.2    265.1      0.01439 (  0.00018,  0.00032) ( -0.00062, -0.00112) (  0.00131,  0.00235)
   0 172   37719.4    265.1     -0.00457 ( -0.00022, -0.00093) (  0.00037,  0.00156) (  0.00024,  0.00103)
   0 173   37720.0    265.1      2.75791 ( -0.00405,  0.00222) ( -0.00515,  0.00282) ( -0.02194,  0.01201)
   0 174   37988.2    263.2    505.84007 ( -0.02302,  0.01330) ( -0.01380,  0.00797) ( -0.43629,  0.25202)
   0 175   38157.4    262.1    -88.90379 (  0.12502,  0.02630) (  0.01003,  0.00211) ( -0.01748, -0.00368)
   0 176   38176.8    261.9    -96.91524 ( -0.00073,  0.00034) ( -0.12046,  0.05639) (  0.02275, -0.01065)
   0 177   38899.2    257.1      0.59815 ( -0.00070,  0.00516) (  0.00278, -0.02036) ( -0.00307,  0.02247)
   0 178   39146.6    255.4      8.98774 (  0.03912, -0.00391) (  0.01041, -0.00104) (  0.00451, -0.00045)
   0 179   39156.3    255.4      6.91372 ( -0.00916, -0.01691) (  0.00843,  0.01556) ( -0.00532, -0.00981)
   0 180   39377.9    253.9    -260.04377 ( -0.01215,  0.02217) ( -0.15693,  0.28631) (  0.00730, -0.01332)
   0 181   39400.8    253.8    -279.89938 ( -0.25460, -0.22458) (  0.00839,  0.00740) (  0.01258,  0.01109)
   0 182   39798.1    251.3     -0.50440 (  0.00389,  0.00602) ( -0.00124, -0.00192) (  0.00986,  0.01526)
   0 183   40179.3    248.9      0.01880 (  0.00176, -0.00647) ( -0.00850,  0.03136) (  0.00789, -0.02910)
   0 184   40474.3    247.1     -4.11745 ( -0.02257,  0.02199) ( -0.00145,  0.00141) ( -0.00217,  0.00212)
   0 185   40490.0    247.0     -4.41652 (  0.00576,  0.00374) ( -0.03211, -0.02084) (  0.00952,  0.00618)
   0 186   40732.0    245.5     90.28238 ( -0.00349, -0.01324) ( -0.00004, -0.00015) ( -0.04412, -0.16725)
   0 187   41076.2    243.5     40.08183 (  0.01313, -0.00106) ( -0.07110,  0.00573) ( -0.03281,  0.00264)
   0 188   41107.1    243.3     28.69204 ( -0.06349,  0.00359) ( -0.00356,  0.00020) ( -0.04187,  0.00237)
   0 189   41182.2    242.8     17.63611 ( -0.00886, -0.02013) ( -0.02275, -0.05168) (  0.00923,  0.02098)
   0 190   41481.7    241.1    -35.85450 (  0.08121, -0.09284) (  0.08845, -0.10111) ( -0.01036,  0.01184)
   0 191   41485.5    241.0    -36.24787 ( -0.05666, -0.14110) (  0.05432,  0.13528) (  0.01681,  0.04186)
   0 192   41885.9    238.7     16.43020 ( -0.00926,  0.00271) ( -0.03433,  0.01006) (  0.13631, -0.03994)
   0 193   41911.2    238.6      2.91562 ( -0.00141,  0.01424) ( -0.00088,  0.00890) ( -0.00661,  0.06679)
   0 194   41927.3    238.5     -1.70075 (  0.00539, -0.02080) ( -0.01078,  0.04164) ( -0.00725,  0.02799)
   0 195   41946.9    238.4     -1.92014 (  0.04581,  0.01620) (  0.06369,  0.02252) (  0.02750,  0.00972)
   0 196   41961.8    238.3     -4.62523 (  0.00459, -0.04235) ( -0.00851,  0.07846) (  0.00378, -0.03487)
   0 197   41983.7    238.2     -0.54127 ( -0.00448,  0.00482) ( -0.01536,  0.01651) (  0.00840, -0.00903)
   0 198   42084.6    237.6     -6.95241 (  0.02890, -0.01044) ( -0.01562,  0.00565) ( -0.08111,  0.02931)
   0 199   44117.0    226.7     -0.18613 ( -0.00580,  0.01590) ( -0.00122,  0.00336) ( -0.00368,  0.01011)
   0 200   44124.7    226.6     -1.69104 (  0.00160,  0.00116) ( -0.01972, -0.01423) (  0.00827,  0.00597)

*The complex numbers are printed as (real, imaginary)

The electronic components of the SOC ground state dipole moment in a.u. are:
           X                     Y                     Z
( -0.11431, -0.00000) ( -0.04945,  0.00000) ( -1.53453,  0.00000)

Total run time:     7751.642 sec

           *** ORCA-CIS/TD-DFT FINISHED WITHOUT ERROR ***

Maximum memory used throughout the entire CIS-calculation: 13142.9 MB

---------------------------
SOC CIS/TD-DFT TOTAL ENERGY
---------------------------

    E(SCF)        =  -7686.522770212 Eh
    E(SOC CIS)    =      0.100339685 Eh (SOC Root  1)
    ----------------------------- ---------
    E(tot)        =  -7686.422430527 Eh



-------------------------------------------------------------------------------
                          DFT DISPERSION CORRECTION                            
                                                                               
                              DFTD3 V3.1  Rev 1                                
                              USING zero damping                               
-------------------------------------------------------------------------------
The omegaB97X-D3 functional is recognized. Fit by Chai et al.
Active option DFTDOPT                   ...         3   

molecular C6(AA) [au] = 249724.150417 


            DFT-D V3
 parameters
 s6 scaling factor         :     1.0000 
 rs6 scaling factor        :     1.2810 
 s8 scaling factor         :     1.0000 
 rs8 scaling factor        :     1.0940 
 Damping factor alpha6     :    14.0000 
 Damping factor alpha8     :    16.0000 
 ad hoc parameters k1-k3   :    16.0000     1.3333    -4.0000 

 Edisp/kcal,au: -51.556403476689  -0.082160349936 
 E6   /kcal   : -26.082166417 
 E8   /kcal   : -25.474237060 
 % E8         :  49.410423036 

-------------------------   ----------------
Dispersion correction           -0.082160350
-------------------------   ----------------


-------------------------   --------------------
FINAL SINGLE POINT ENERGY     -7686.504590877124
-------------------------   --------------------


                            ***************************************
                            *     ORCA property calculations      *
                            ***************************************

                                    ---------------------
                                    Active property flags
                                    ---------------------
   (+) Dipole Moment


------------------------------------------------------------------------------
                       ORCA ELECTRIC PROPERTIES CALCULATION
------------------------------------------------------------------------------

Dipole Moment Calculation                       ... on
Quadrupole Moment Calculation                   ... off
Polarizability Calculation                      ... off
GBWName                                         ... Ru-arylbpy_3_SOC-wB97XD_def2SVP.gbw
Electron density                                ... Ru-arylbpy_3_SOC-wB97XD_def2SVP.scfp
The origin for moment calculation is the CENTER OF MASS  = (-0.000160, -0.000080 -0.002728)

-------------
DIPOLE MOMENT
-------------
                                X             Y             Z
Electronic contribution:     -0.11413      -0.04942      -1.53416
Nuclear contribution   :      0.09256       0.04633       1.57666
                        -----------------------------------------
Total Dipole Moment    :     -0.02158      -0.00310       0.04250
                        -----------------------------------------
Magnitude (a.u.)       :      0.04776
Magnitude (Debye)      :      0.12140



--------------------
Rotational spectrum 
--------------------
 
Rotational constants in cm-1:     0.000612     0.000606     0.000473 
Rotational constants in MHz :    18.346787    18.153373    14.189208 

 Dipole components along the rotational axes: 
x,y,z [a.u.] :    -0.021578    -0.003092     0.042496 
x,y,z [Debye]:    -0.054846    -0.007859     0.108017 

 

Timings for individual modules:

Sum of individual times         ...     9192.773 sec (= 153.213 min)
GTO integral calculation        ...        4.880 sec (=   0.081 min)   0.1 %
Relativistic integrals          ...       14.140 sec (=   0.236 min)   0.2 %
SCF iterations                  ...     1420.857 sec (=  23.681 min)  15.5 %
CIS module                      ...     7752.895 sec (= 129.215 min)  84.3 %
                             ****ORCA TERMINATED NORMALLY****
TOTAL RUN TIME: 0 days 2 hours 33 minutes 14 seconds 742 msec
