
                                 *****************
                                 * O   R   C   A *
                                 *****************

                                            #,                                       
                                            ###                                      
                                            ####                                     
                                            #####                                    
                                            ######                                   
                                           ########,                                 
                                     ,,################,,,,,                         
                               ,,#################################,,                 
                          ,,##########################################,,             
                       ,#########################################, ''#####,          
                    ,#############################################,,   '####,        
                  ,##################################################,,,,####,       
                ,###########''''           ''''###############################       
              ,#####''   ,,,,##########,,,,          '''####'''          '####       
            ,##' ,,,,###########################,,,                        '##       
           ' ,,###''''                  '''############,,,                           
         ,,##''                                '''############,,,,        ,,,,,,###''
      ,#''                                            '''#######################'''  
     '                                                          ''''####''''         
             ,#######,   #######,   ,#######,      ##                                
            ,#'     '#,  ##    ##  ,#'     '#,    #''#        ######   ,####,        
            ##       ##  ##   ,#'  ##            #'  '#       #        #'  '#        
            ##       ##  #######   ##           ,######,      #####,   #    #        
            '#,     ,#'  ##    ##  '#,     ,#' ,#      #,         ##   #,  ,#        
             '#######'   ##     ##  '#######'  #'      '#     #####' # '####'        



                  #######################################################
                  #                        -***-                        #
                  #          Department of theory and spectroscopy      #
                  #    Directorship and core code : Frank Neese         #
                  #        Max Planck Institute fuer Kohlenforschung    #
                  #                Kaiser Wilhelm Platz 1               #
                  #                 D-45470 Muelheim/Ruhr               #
                  #                      Germany                        #
                  #                                                     #
                  #                  All rights reserved                #
                  #                        -***-                        #
                  #######################################################


                         Program Version 5.0.2 -  RELEASE  -


 With contributions from (in alphabetic order):
   Daniel Aravena         : Magnetic Suceptibility
   Michael Atanasov       : Ab Initio Ligand Field Theory (pilot matlab implementation)
   Alexander A. Auer      : GIAO ZORA, VPT2 properties, NMR spectrum
   Ute Becker             : Parallelization
   Giovanni Bistoni       : ED, misc. LED, open-shell LED, HFLD
   Martin Brehm           : Molecular dynamics
   Dmytro Bykov           : SCF Hessian
   Vijay G. Chilkuri      : MRCI spin determinant printing, contributions to CSF-ICE
   Dipayan Datta          : RHF DLPNO-CCSD density
   Achintya Kumar Dutta   : EOM-CC, STEOM-CC
   Dmitry Ganyushin       : Spin-Orbit,Spin-Spin,Magnetic field MRCI
   Miquel Garcia          : C-PCM and meta-GGA Hessian, CC/C-PCM, Gaussian charge scheme
   Yang Guo               : DLPNO-NEVPT2, F12-NEVPT2, CIM, IAO-localization
   Andreas Hansen         : Spin unrestricted coupled pair/coupled cluster methods
   Benjamin Helmich-Paris : MC-RPA, TRAH-SCF, COSX integrals
   Lee Huntington         : MR-EOM, pCC
   Robert Izsak           : Overlap fitted RIJCOSX, COSX-SCS-MP3, EOM
   Marcus Kettner         : VPT2
   Christian Kollmar      : KDIIS, OOCD, Brueckner-CCSD(T), CCSD density, CASPT2, CASPT2-K
   Simone Kossmann        : Meta GGA functionals, TD-DFT gradient, OOMP2, MP2 Hessian
   Martin Krupicka        : Initial AUTO-CI
   Lucas Lang             : DCDCAS
   Marvin Lechner         : AUTO-CI (C++ implementation), FIC-MRCC
   Dagmar Lenk            : GEPOL surface, SMD
   Dimitrios Liakos       : Extrapolation schemes; Compound Job, initial MDCI parallelization
   Dimitrios Manganas     : Further ROCIS development; embedding schemes
   Dimitrios Pantazis     : SARC Basis sets
   Anastasios Papadopoulos: AUTO-CI, single reference methods and gradients
   Taras Petrenko         : DFT Hessian,TD-DFT gradient, ASA, ECA, R-Raman, ABS, FL, XAS/XES, NRVS
   Peter Pinski           : DLPNO-MP2, DLPNO-MP2 Gradient
   Christoph Reimann      : Effective Core Potentials
   Marius Retegan         : Local ZFS, SOC
   Christoph Riplinger    : Optimizer, TS searches, QM/MM, DLPNO-CCSD(T), (RO)-DLPNO pert. Triples
   Tobias Risthaus        : Range-separated hybrids, TD-DFT gradient, RPA, STAB
   Michael Roemelt        : Original ROCIS implementation
   Masaaki Saitow         : Open-shell DLPNO-CCSD energy and density
   Barbara Sandhoefer     : DKH picture change effects
   Avijit Sen             : IP-ROCIS
   Kantharuban Sivalingam : CASSCF convergence, NEVPT2, FIC-MRCI
   Bernardo de Souza      : ESD, SOC TD-DFT
   Georgi Stoychev        : AutoAux, RI-MP2 NMR, DLPNO-MP2 response
   Willem Van den Heuvel  : Paramagnetic NMR
   Boris Wezisla          : Elementary symmetry handling
   Frank Wennmohs         : Technical directorship


 We gratefully acknowledge several colleagues who have allowed us to
 interface, adapt or use parts of their codes:
   Stefan Grimme, W. Hujo, H. Kruse, P. Pracht,  : VdW corrections, initial TS optimization,
                  C. Bannwarth, S. Ehlert          DFT functionals, gCP, sTDA/sTD-DF
   Ed Valeev, F. Pavosevic, A. Kumar             : LibInt (2-el integral package), F12 methods
   Garnet Chan, S. Sharma, J. Yang, R. Olivares  : DMRG
   Ulf Ekstrom                                   : XCFun DFT Library
   Mihaly Kallay                                 : mrcc  (arbitrary order and MRCC methods)
   Jiri Pittner, Ondrej Demel                    : Mk-CCSD
   Frank Weinhold                                : gennbo (NPA and NBO analysis)
   Christopher J. Cramer and Donald G. Truhlar   : smd solvation model
   Lars Goerigk                                  : TD-DFT with DH, B97 family of functionals
   V. Asgeirsson, H. Jonsson                     : NEB implementation
   FAccTs GmbH                                   : IRC, NEB, NEB-TS, DLPNO-Multilevel, CI-OPT
                                                   MM, QMMM, 2- and 3-layer-ONIOM, Crystal-QMMM,
                                                   LR-CPCM, SF, NACMEs, symmetry and pop. for TD-DFT,
                                                   nearIR, NL-DFT gradient (VV10), updates on ESD,
                                                   ML-optimized integration grids
   S Lehtola, MJT Oliveira, MAL Marques          : LibXC Library
   Liviu Ungur et al                             : ANISO software


 Your calculation uses the libint2 library for the computation of 2-el integrals
 For citations please refer to: http://libint.valeyev.net

 Your ORCA version has been built with support for libXC version: 5.1.0
 For citations please refer to: https://tddft.org/programs/libxc/

 This ORCA versions uses:
   CBLAS   interface :  Fast vector & matrix operations
   LAPACKE interface :  Fast linear algebra routines
   SCALAPACK package :  Parallel linear algebra routines
   Shared memory     :  Shared parallel matrices
   BLAS/LAPACK       :  OpenBLAS 0.3.15  USE64BITINT DYNAMIC_ARCH NO_AFFINITY Zen SINGLE_THREADED
        Core in use  :  Zen
   Copyright (c) 2011-2014, The OpenBLAS Project


Your calculation utilizes the SMD solvation module
Please cite in your paper:
A.V. Marenich, C.J. Cramer, D.G. Truhlar J. Phys. Chem. B, 113, (2009), 6378 

================================================================================

cite the ECPs for Ru [Def2-ECP] as follows:
Ce-Yb(ecp-28): M. Dolg, H. Stoll, H.Preuss, J. Chem. Phys., 1989, 90, 1730-1734.
Y-Cd(ecp-28), Hf-Hg(ecp-46): D. Andrae,U. Haeussermann, M. Dolg, H. Stoll, H. Preuss, Theor. Chim. Acta, 1990, 77, 123-141.
In-Sb(ecp-28), Tl-Bi(ecp-46): B. Metz, H. Stoll, M. Dolg, J. Chem. Phys., 2000, 113, 2563-2569.
Te-Xe(ecp-28), Po-Rn(ecp-46): K. A. Peterson, D. Figgen, E. Goll, H. Stoll, M. Dolg, J. Chem. Phys., 2003, 119, 11113-11123.
Rb(ecp-28), Cs(ecp-46): T. Leininger, A. Nicklass, W. Kuechle, H. Stoll, M. Dolg, A. Bergner, Chem. Phys. Lett., 1996, 255, 274-280.
Sr(ecp-28), Ba(ecp-46): M. Kaupp, P. V. Schleyer, H. Stoll and H. Preuss, J. Chem. Phys., 1991, 94, 1360-1366.
La(ecp-46): M. Dolg, H. Stoll, A. Savin, H. Preuss, Theor. Chim. Acta, 1989, 75, 173-194.
Lu(ecp-28): X. Cao, M. Dolg, J. Chem. Phys., 2001, 115, 7348-7355.

ECP parameters for Ru [Def2-ECP] have been obtained from:
TURBOMOLE (7.0.2)

----- Orbital basis set information -----
Your calculation utilizes the basis: def2-SVP
   F. Weigend and R. Ahlrichs, Phys. Chem. Chem. Phys. 7, 3297 (2005).

----- AuxJ basis set information -----
Your calculation utilizes the auxiliary basis: def2/J
   F. Weigend, Phys. Chem. Chem. Phys. 8, 1057 (2006).

----- AuxC basis set information -----
Your calculation utilizes the auxiliary basis: def2-SVP/C
  H-La, Hf-Rn : A. Hellweg, C. Hattig, S. Hofener and W. Klopper, Theor. Chem. Acc. 117, 587 (2007).
        Ce-Lu : J. Chmela and M. E. Harding, Mol. Phys. (2018).

================================================================================
                                        WARNINGS
                       Please study these warnings very carefully!
================================================================================

INFO   : Checking CIS options ...
  ===> : (D) CORRECTION FOUND - SETTING MODE=3
  ===> : JK MODE FOUND - ACTIVATING RI-MP2 CODE
  ===> : MP2 AND CIS FOUND - CHECKING
WARNING: CIS(D) and MP2 runs must have the same orbital window
  ===> : adjusting orbital windows

WARNING: No MP2 level density has been requested!
         To caclulate MP2 level properties use
         %mp2 Density relaxed end
         or
         %mp2 Density unrelaxed end
         Otherwise for double-hybrid DFT only the energy is correct!

WARNING: The frozen-core approximation is turned on by default for 
         the MP2 part of double-hybrid DFT.

WARNING:  You are using a Range-Separated Double Hybrid functional with Doubles Correction 
          Changing Mode to RPA_AOINTS 


WARNING: CIS/ROCIS methods need fully converged wavefunctions
  ===> : Setting SCFConvForced true
         You can overwrite this default with %scf ConvForced false 


INFO   : the flag for use of the SHARK integral package has been found!

================================================================================
                                       INPUT FILE
================================================================================
NAME = Ru-arylbpy_3.inp
|  1> %maxcore 26000
|  2> %pal
|  3>  nprocs= 8
|  4> end
|  5> ! RI-wB2PLYP  def2-SVP def2/J def2-SVP/C RIJCOSX CPCM TIGHTSCF
|  6> 
|  7> %TDDFT 
|  8>     DCORR      1
|  9>     NROOTS    40
| 10>     TDA       FALSE
| 11> END
| 12> 
| 13> %CPCM
| 14>     SMD		TRUE
| 15>     SMDsolvent	"Acetonitrile"
| 16> END
| 17> 
| 18> * xyz 2 1
| 19> C                   2.72467300   -0.93036900    0.58500600
| 20> C                   2.07216400    0.68631800    2.12069200
| 21> C                   3.27751600    0.59785800    2.79370700
| 22> C                   3.95652000   -1.06087400    1.22066300
| 23> C                   2.33028300   -1.70812800   -0.59437700
| 24> C                   0.64951500   -2.11920700   -2.14539700
| 25> C                   1.42070200   -3.06495900   -2.79706600
| 26> C                   3.15169300   -2.64912700   -1.20963100
| 27> H                   1.29993500    1.38253300    2.45462800
| 28> H                   3.44249100    1.25028900    3.65180800
| 29> H                   4.67218500   -1.78739500    0.83679700
| 30> H                  -0.35349500   -1.87565500   -2.50233400
| 31> H                   1.00676300   -3.55469300   -3.67922600
| 32> H                   4.13719400   -2.84628500   -0.78767600
| 33> C                  -0.56229200    2.81762700    0.57779000
| 34> C                  -1.66004400    1.44534400    2.09851400
| 35> C                  -2.18514000    2.53425600    2.77081000
| 36> C                  -1.06020800    3.95066700    1.21605100
| 37> C                   0.30956100    2.86127300   -0.60116200
| 38> C                   1.51570800    1.60406700   -2.13914600
| 39> C                   1.95067500    2.74122200   -2.79555600
| 40> C                   0.71426900    4.04011700   -1.22269900
| 41> H                  -1.87474400    0.42840900    2.43375600
| 42> H                  -2.80852800    2.35300700    3.64692100
| 43> H                  -0.81213900    4.93394000    0.81697000
| 44> H                   1.81101300    0.61266400   -2.48907800
| 45> H                   2.58566200    2.62434100   -3.67435400
| 46> H                   0.38880300    4.99409000   -0.80848600
| 47> C                  -2.64199300   -1.16657300   -0.61206300
| 48> C                  -2.14843100    0.50970100   -2.14384800
| 49> C                  -3.35795200    0.33580300   -2.79182200
| 50> C                  -3.87171400   -1.38950200   -1.22697900
| 51> C                  -2.16885800   -1.90970100    0.56077600
| 52> C                  -0.44369300   -2.17170100    2.09494500
| 53> C                  -1.12442000   -3.17730600    2.75717800
| 54> C                  -2.89998800   -2.91529400    1.18736400
| 55> H                  -1.43188300    1.25580200   -2.49378400
| 56> H                  -4.53936000   -2.14526000   -0.81323300
| 57> H                   0.54551600   -1.85453400    2.43207000
| 58> H                  -3.88801000   -3.16626000    0.80276900
| 59> N                  -1.78039300   -0.21808100   -1.07434200
| 60> N                   1.08067000   -1.44148300   -1.06648800
| 61> N                   0.70762000    1.64381000   -1.06461800
| 62> N                   1.78201800   -0.05826200    1.03864900
| 63> N                  -0.85764200    1.56557700    1.02580700
| 64> N                  -0.94188600   -1.53591500    1.01949500
| 65> Ru                 -0.00144400   -0.00793900   -0.02404500
| 66> H                  -3.57390500    0.95436200   -3.66345900
| 67> H                  -0.64222600   -3.65464300    3.61080700
| 68> C                   2.71815500   -3.35753900   -2.33905400
| 69> C                   4.26993400   -0.29623100    2.35320500
| 70> C                  -1.88907900    3.84048300    2.34162900
| 71> C                   1.55098000    4.01304200   -2.34740200
| 72> C                  -4.26839200   -0.63772600   -2.34232800
| 73> C                  -2.39595900   -3.58299100    2.31271000
| 74> C                  -2.41436000    5.02702500    3.03510300
| 75> C                  -1.75728800    6.26755700    2.95420800
| 76> C                  -3.59119000    4.96035200    3.80194000
| 77> C                  -2.25299000    7.38584200    3.61437300
| 78> H                  -0.82901100    6.35695800    2.38494000
| 79> C                  -4.08650200    6.08438800    4.45277000
| 80> H                  -4.14662900    4.02187800    3.87008600
| 81> C                  -3.42773100    7.32100300    4.37852500
| 82> H                  -1.71492300    8.33503800    3.53990800
| 83> H                  -5.01288100    6.00574100    5.02864800
| 84> C                   1.98631900    5.24606700   -3.02163000
| 85> C                   1.23270200    6.43021400   -2.93925500
| 86> C                   3.17502700    5.27929100   -3.77210700
| 87> C                   1.64890600    7.59027000   -3.58248600
| 88> H                   0.29159800    6.44208500   -2.38399400
| 89> C                   3.58993800    6.44466700   -4.40599500
| 90> H                   3.80244400    4.38724800   -3.83922300
| 91> C                   2.83542100    7.62512600   -4.33031000
| 92> H                   1.03724100    8.49373600   -3.50735800
| 93> H                   4.52735300    6.44386200   -4.96929900
| 94> C                   5.56540000   -0.42397900    3.03871200
| 95> C                   5.70806500   -0.07514200    4.39341000
| 96> C                   6.70282300   -0.90224300    2.36442200
| 97> C                   6.93163500   -0.20210500    5.04076200
| 98> H                   4.84264200    0.27457200    4.96133200
| 99> C                   7.92557800   -1.01883300    3.01506000
|100> H                   6.63871300   -1.16770300    1.30641100
|101> C                   8.06914400   -0.67133600    4.36676100
|102> H                   7.00794100    0.06206200    6.09925100
|103> H                   8.79459300   -1.38584600    2.46179400
|104> C                   3.57623100   -4.34758400   -3.00824800
|105> C                   4.97628700   -4.29740100   -2.89046700
|106> C                   3.02332400   -5.37823200   -3.78896000
|107> C                   5.78307800   -5.23361700   -3.52716500
|108> H                   5.44725600   -3.50011300   -2.31040300
|109> C                   3.83477100   -6.31592500   -4.41645800
|110> H                   1.93881400   -5.46604500   -3.88669400
|111> C                   5.23254300   -6.26367000   -4.30419400
|112> H                   6.86953900   -5.16419800   -3.42326400
|113> H                   3.37461900   -7.11509000   -5.00434500
|114> C                  -3.15603300   -4.64754800    2.98685200
|115> C                  -2.90196000   -4.98398000    4.32835800
|116> C                  -4.16370600   -5.36297900    2.31561800
|117> C                  -3.62424800   -5.98607700    4.96585100
|118> H                  -2.14483500   -4.43681400    4.89471300
|119> C                  -4.87730900   -6.36910900    2.95607900
|120> H                  -4.38213800   -5.14592300    1.26733900
|121> C                  -4.62468100   -6.70489400    4.29476400
|122> H                  -3.41339900   -6.21421500    6.01439900
|123> H                  -5.64986000   -6.91251100    2.40481400
|124> C                  -5.56496000   -0.85318300   -3.00383900
|125> C                  -6.24504100   -2.07944900   -2.90158800
|126> C                  -6.16996300    0.16698400   -3.75948300
|127> C                  -7.47052300   -2.27377300   -3.52866100
|128> H                  -5.80102000   -2.90661900   -2.34278500
|129> C                  -7.39902800   -0.03076000   -4.37750700
|130> H                  -5.68592500    1.14281300   -3.84380500
|131> C                  -8.07621000   -1.25569700   -4.28011600
|132> H                  -7.97182600   -3.24143100   -3.43705300
|133> H                  -7.85169300    0.78742100   -4.94470400
|134> C                  -5.37419600   -7.80427400    4.97167000
|135> H                  -4.87022900   -8.77335700    4.82653700
|136> H                  -5.44350700   -7.64555000    6.05579800
|137> H                  -6.38988300   -7.91624100    4.56988600
|138> C                  -9.37993200   -1.47557400   -4.97341900
|139> H                  -9.96583700   -0.54980300   -5.04688800
|140> H                  -9.22400100   -1.83059000   -6.00481800
|141> H                  -9.99046000   -2.23500300   -4.46771100
|142> C                   6.10117500   -7.25297900   -5.00826900
|143> H                   6.30847700   -6.93186000   -6.04170200
|144> H                   7.07353200   -7.37125800   -4.51268300
|145> H                   5.62366200   -8.23940000   -5.07863800
|146> C                   9.38955200   -0.77235900    5.05594200
|147> H                   9.95546100    0.16873900    4.96518600
|148> H                   9.27656600   -0.96768800    6.13046700
|149> H                  10.01933500   -1.56050400    4.62275700
|150> C                  -3.94315900    8.51683300    5.10863300
|151> H                  -3.53230800    8.56320400    6.13001100
|152> H                  -3.65914600    9.45419900    4.61260400
|153> H                  -5.03606900    8.49392700    5.21161000
|154> C                   3.26598100    8.86481100   -5.04208300
|155> H                   2.86983000    8.88783600   -6.07003100
|156> H                   2.90024500    9.77209900   -4.54368900
|157> H                   4.35883100    8.92979400   -5.12633000
|158> *
|159> 
|160>                          ****END OF INPUT****
================================================================================

                       ****************************
                       * Single Point Calculation *
                       ****************************

---------------------------------
CARTESIAN COORDINATES (ANGSTROEM)
---------------------------------
  C      2.724673   -0.930369    0.585006
  C      2.072164    0.686318    2.120692
  C      3.277516    0.597858    2.793707
  C      3.956520   -1.060874    1.220663
  C      2.330283   -1.708128   -0.594377
  C      0.649515   -2.119207   -2.145397
  C      1.420702   -3.064959   -2.797066
  C      3.151693   -2.649127   -1.209631
  H      1.299935    1.382533    2.454628
  H      3.442491    1.250289    3.651808
  H      4.672185   -1.787395    0.836797
  H     -0.353495   -1.875655   -2.502334
  H      1.006763   -3.554693   -3.679226
  H      4.137194   -2.846285   -0.787676
  C     -0.562292    2.817627    0.577790
  C     -1.660044    1.445344    2.098514
  C     -2.185140    2.534256    2.770810
  C     -1.060208    3.950667    1.216051
  C      0.309561    2.861273   -0.601162
  C      1.515708    1.604067   -2.139146
  C      1.950675    2.741222   -2.795556
  C      0.714269    4.040117   -1.222699
  H     -1.874744    0.428409    2.433756
  H     -2.808528    2.353007    3.646921
  H     -0.812139    4.933940    0.816970
  H      1.811013    0.612664   -2.489078
  H      2.585662    2.624341   -3.674354
  H      0.388803    4.994090   -0.808486
  C     -2.641993   -1.166573   -0.612063
  C     -2.148431    0.509701   -2.143848
  C     -3.357952    0.335803   -2.791822
  C     -3.871714   -1.389502   -1.226979
  C     -2.168858   -1.909701    0.560776
  C     -0.443693   -2.171701    2.094945
  C     -1.124420   -3.177306    2.757178
  C     -2.899988   -2.915294    1.187364
  H     -1.431883    1.255802   -2.493784
  H     -4.539360   -2.145260   -0.813233
  H      0.545516   -1.854534    2.432070
  H     -3.888010   -3.166260    0.802769
  N     -1.780393   -0.218081   -1.074342
  N      1.080670   -1.441483   -1.066488
  N      0.707620    1.643810   -1.064618
  N      1.782018   -0.058262    1.038649
  N     -0.857642    1.565577    1.025807
  N     -0.941886   -1.535915    1.019495
  Ru    -0.001444   -0.007939   -0.024045
  H     -3.573905    0.954362   -3.663459
  H     -0.642226   -3.654643    3.610807
  C      2.718155   -3.357539   -2.339054
  C      4.269934   -0.296231    2.353205
  C     -1.889079    3.840483    2.341629
  C      1.550980    4.013042   -2.347402
  C     -4.268392   -0.637726   -2.342328
  C     -2.395959   -3.582991    2.312710
  C     -2.414360    5.027025    3.035103
  C     -1.757288    6.267557    2.954208
  C     -3.591190    4.960352    3.801940
  C     -2.252990    7.385842    3.614373
  H     -0.829011    6.356958    2.384940
  C     -4.086502    6.084388    4.452770
  H     -4.146629    4.021878    3.870086
  C     -3.427731    7.321003    4.378525
  H     -1.714923    8.335038    3.539908
  H     -5.012881    6.005741    5.028648
  C      1.986319    5.246067   -3.021630
  C      1.232702    6.430214   -2.939255
  C      3.175027    5.279291   -3.772107
  C      1.648906    7.590270   -3.582486
  H      0.291598    6.442085   -2.383994
  C      3.589938    6.444667   -4.405995
  H      3.802444    4.387248   -3.839223
  C      2.835421    7.625126   -4.330310
  H      1.037241    8.493736   -3.507358
  H      4.527353    6.443862   -4.969299
  C      5.565400   -0.423979    3.038712
  C      5.708065   -0.075142    4.393410
  C      6.702823   -0.902243    2.364422
  C      6.931635   -0.202105    5.040762
  H      4.842642    0.274572    4.961332
  C      7.925578   -1.018833    3.015060
  H      6.638713   -1.167703    1.306411
  C      8.069144   -0.671336    4.366761
  H      7.007941    0.062062    6.099251
  H      8.794593   -1.385846    2.461794
  C      3.576231   -4.347584   -3.008248
  C      4.976287   -4.297401   -2.890467
  C      3.023324   -5.378232   -3.788960
  C      5.783078   -5.233617   -3.527165
  H      5.447256   -3.500113   -2.310403
  C      3.834771   -6.315925   -4.416458
  H      1.938814   -5.466045   -3.886694
  C      5.232543   -6.263670   -4.304194
  H      6.869539   -5.164198   -3.423264
  H      3.374619   -7.115090   -5.004345
  C     -3.156033   -4.647548    2.986852
  C     -2.901960   -4.983980    4.328358
  C     -4.163706   -5.362979    2.315618
  C     -3.624248   -5.986077    4.965851
  H     -2.144835   -4.436814    4.894713
  C     -4.877309   -6.369109    2.956079
  H     -4.382138   -5.145923    1.267339
  C     -4.624681   -6.704894    4.294764
  H     -3.413399   -6.214215    6.014399
  H     -5.649860   -6.912511    2.404814
  C     -5.564960   -0.853183   -3.003839
  C     -6.245041   -2.079449   -2.901588
  C     -6.169963    0.166984   -3.759483
  C     -7.470523   -2.273773   -3.528661
  H     -5.801020   -2.906619   -2.342785
  C     -7.399028   -0.030760   -4.377507
  H     -5.685925    1.142813   -3.843805
  C     -8.076210   -1.255697   -4.280116
  H     -7.971826   -3.241431   -3.437053
  H     -7.851693    0.787421   -4.944704
  C     -5.374196   -7.804274    4.971670
  H     -4.870229   -8.773357    4.826537
  H     -5.443507   -7.645550    6.055798
  H     -6.389883   -7.916241    4.569886
  C     -9.379932   -1.475574   -4.973419
  H     -9.965837   -0.549803   -5.046888
  H     -9.224001   -1.830590   -6.004818
  H     -9.990460   -2.235003   -4.467711
  C      6.101175   -7.252979   -5.008269
  H      6.308477   -6.931860   -6.041702
  H      7.073532   -7.371258   -4.512683
  H      5.623662   -8.239400   -5.078638
  C      9.389552   -0.772359    5.055942
  H      9.955461    0.168739    4.965186
  H      9.276566   -0.967688    6.130467
  H     10.019335   -1.560504    4.622757
  C     -3.943159    8.516833    5.108633
  H     -3.532308    8.563204    6.130011
  H     -3.659146    9.454199    4.612604
  H     -5.036069    8.493927    5.211610
  C      3.265981    8.864811   -5.042083
  H      2.869830    8.887836   -6.070031
  H      2.900245    9.772099   -4.543689
  H      4.358831    8.929794   -5.126330

----------------------------
CARTESIAN COORDINATES (A.U.)
----------------------------
  NO LB      ZA    FRAG     MASS         X           Y           Z
   0 C     6.0000    0    12.011    5.148886   -1.758143    1.105501
   1 C     6.0000    0    12.011    3.915822    1.296953    4.007527
   2 C     6.0000    0    12.011    6.193608    1.129788    5.279341
   3 C     6.0000    0    12.011    7.476739   -2.004761    2.306719
   4 C     6.0000    0    12.011    4.403597   -3.227894   -1.123210
   5 C     6.0000    0    12.011    1.227405   -4.004721   -4.054213
   6 C     6.0000    0    12.011    2.684738   -5.791933   -5.285689
   7 C     6.0000    0    12.011    5.955837   -5.006125   -2.285871
   8 H     1.0000    0     1.008    2.456521    2.612609    4.638575
   9 H     1.0000    0     1.008    6.505365    2.362704    6.900917
  10 H     1.0000    0     1.008    8.829150   -3.377687    1.581317
  11 H     1.0000    0     1.008   -0.668009   -3.544474   -4.728726
  12 H     1.0000    0     1.008    1.902506   -6.717396   -6.952730
  13 H     1.0000    0     1.008    7.818164   -5.378699   -1.488492
  14 C     6.0000    0    12.011   -1.062578    5.324543    1.091865
  15 C     6.0000    0    12.011   -3.137029    2.731304    3.965617
  16 C     6.0000    0    12.011   -4.129316    4.789050    5.236072
  17 C     6.0000    0    12.011   -2.003503    7.465679    2.298003
  18 C     6.0000    0    12.011    0.584986    5.407022   -1.136032
  19 C     6.0000    0    12.011    2.864273    3.031247   -4.042400
  20 C     6.0000    0    12.011    3.686242    5.180159   -5.282835
  21 C     6.0000    0    12.011    1.349773    7.634715   -2.310566
  22 H     1.0000    0     1.008   -3.542753    0.809576    4.599132
  23 H     1.0000    0     1.008   -5.307349    4.446539    6.891682
  24 H     1.0000    0     1.008   -1.534720    9.323795    1.543850
  25 H     1.0000    0     1.008    3.422319    1.157767   -4.703676
  26 H     1.0000    0     1.008    4.886193    4.959286   -6.943523
  27 H     1.0000    0     1.008    0.734731    9.437462   -1.527817
  28 C     6.0000    0    12.011   -4.992643   -2.204503   -1.156631
  29 C     6.0000    0    12.011   -4.059946    0.963195   -4.051286
  30 C     6.0000    0    12.011   -6.345610    0.634576   -5.275779
  31 C     6.0000    0    12.011   -7.316479   -2.625778   -2.318654
  32 C     6.0000    0    12.011   -4.098548   -3.608812    1.059713
  33 C     6.0000    0    12.011   -0.838458   -4.103920    3.958872
  34 C     6.0000    0    12.011   -2.124846   -6.004238    5.210311
  35 C     6.0000    0    12.011   -5.480183   -5.509107    2.243793
  36 H     1.0000    0     1.008   -2.705867    2.373122   -4.712569
  37 H     1.0000    0     1.008   -8.578147   -4.053954   -1.536788
  38 H     1.0000    0     1.008    1.030876   -3.504561    4.595946
  39 H     1.0000    0     1.008   -7.347274   -5.983364    1.517014
  40 N     7.0000    0    14.007   -3.364455   -0.412113   -2.030212
  41 N     7.0000    0    14.007    2.042170   -2.724008   -2.015370
  42 N     7.0000    0    14.007    1.337208    3.106351   -2.011836
  43 N     7.0000    0    14.007    3.367526   -0.110099    1.962762
  44 N     7.0000    0    14.007   -1.620709    2.958512    1.938494
  45 N     7.0000    0    14.007   -1.779907   -2.902459    1.926566
  46 Ru   16.0000*   0   101.070   -0.002729   -0.015003   -0.045438
  47 H     1.0000    0     1.008   -6.753702    1.803483   -6.922934
  48 H     1.0000    0     1.008   -1.213631   -6.906274    6.823436
  49 C     6.0000    0    12.011    5.136569   -6.344829   -4.420171
  50 C     6.0000    0    12.011    8.069006   -0.559795    4.446913
  51 C     6.0000    0    12.011   -3.569842    7.257461    4.425038
  52 C     6.0000    0    12.011    2.930927    7.583550   -4.435947
  53 C     6.0000    0    12.011   -8.066092   -1.205127   -4.426358
  54 C     6.0000    0    12.011   -4.527706   -6.770872    4.370389
  55 C     6.0000    0    12.011   -4.562479    9.499701    5.735513
  56 C     6.0000    0    12.011   -3.320793   11.843966    5.582644
  57 C     6.0000    0    12.011   -6.786366    9.373707    7.184625
  58 C     6.0000    0    12.011   -4.257534   13.957219    6.830175
  59 H     1.0000    0     1.008   -1.566604   12.012910    4.506883
  60 C     6.0000    0    12.011   -7.722370   11.497827    8.414516
  61 H     1.0000    0     1.008   -7.835993    7.600248    7.313403
  62 C     6.0000    0    12.011   -6.477473   13.834691    8.274213
  63 H     1.0000    0     1.008   -3.240735   15.750939    6.689457
  64 H     1.0000    0     1.008   -9.472972   11.349206    9.502768
  65 C     6.0000    0    12.011    3.753599    9.913630   -5.710053
  66 C     6.0000    0    12.011    2.329469   12.151343   -5.554387
  67 C     6.0000    0    12.011    5.999931    9.976414   -7.128249
  68 C     6.0000    0    12.011    3.115981   14.343532   -6.769917
  69 H     1.0000    0     1.008    0.551040   12.173776   -4.505096
  70 C     6.0000    0    12.011    6.784000   12.178656   -8.326124
  71 H     1.0000    0     1.008    7.185578    8.290697   -7.255080
  72 C     6.0000    0    12.011    5.358169   14.409400   -8.183100
  73 H     1.0000    0     1.008    1.960101   16.050835   -6.627946
  74 H     1.0000    0     1.008    8.555457   12.177134   -9.390614
  75 C     6.0000    0    12.011   10.517082   -0.801204    5.742333
  76 C     6.0000    0    12.011   10.786680   -0.141998    8.302342
  77 C     6.0000    0    12.011   12.666500   -1.704992    4.468110
  78 C     6.0000    0    12.011   13.098892   -0.381923    9.525660
  79 H     1.0000    0     1.008    9.151267    0.518866    9.375559
  80 C     6.0000    0    12.011   14.977172   -1.925315    5.697638
  81 H     1.0000    0     1.008   12.545349   -2.206639    2.468759
  82 C     6.0000    0    12.011   15.248472   -1.268641    8.251982
  83 H     1.0000    0     1.008   13.243089    0.117280   11.525914
  84 H     1.0000    0     1.008   16.619372   -2.618869    4.652116
  85 C     6.0000    0    12.011    6.758097   -8.215743   -5.684765
  86 C     6.0000    0    12.011    9.403820   -8.120911   -5.462191
  87 C     6.0000    0    12.011    5.713254  -10.163386   -7.160097
  88 C     6.0000    0    12.011   10.928434   -9.890103   -6.665376
  89 H     1.0000    0     1.008   10.293822   -6.614255   -4.366029
  90 C     6.0000    0    12.011    7.246667  -11.935369   -8.345896
  91 H     1.0000    0     1.008    3.663827  -10.329328   -7.344787
  92 C     6.0000    0    12.011    9.888073  -11.836621   -8.133748
  93 H     1.0000    0     1.008   12.981547   -9.758920   -6.469031
  94 H     1.0000    0     1.008    6.377106  -13.445572   -9.456842
  95 C     6.0000    0    12.011   -5.964038   -8.782593    5.644332
  96 C     6.0000    0    12.011   -5.483910   -9.418357    8.179411
  97 C     6.0000    0    12.011   -7.868264  -10.134562    4.375884
  98 C     6.0000    0    12.011   -6.848836  -11.312046    9.384098
  99 H     1.0000    0     1.008   -4.053151   -8.384363    9.249667
 100 C     6.0000    0    12.011   -9.216778  -12.035872    5.586180
 101 H     1.0000    0     1.008   -8.281041   -9.724385    2.394924
 102 C     6.0000    0    12.011   -8.739381  -12.670413    8.115928
 103 H     1.0000    0     1.008   -6.450389  -11.743164   11.365567
 104 H     1.0000    0     1.008  -10.676688  -13.062753    4.544440
 105 C     6.0000    0    12.011  -10.516250   -1.612282   -5.676433
 106 C     6.0000    0    12.011  -11.801417   -3.929589   -5.483207
 107 C     6.0000    0    12.011  -11.659540    0.315554   -7.104393
 108 C     6.0000    0    12.011  -14.117243   -4.296808   -6.668203
 109 H     1.0000    0     1.008  -10.962339   -5.492714   -4.427222
 110 C     6.0000    0    12.011  -13.982137   -0.058128   -8.272289
 111 H     1.0000    0     1.008  -10.744841    2.159604   -7.263739
 112 C     6.0000    0    12.011  -15.261825   -2.372923   -8.088247
 113 H     1.0000    0     1.008  -15.064568   -6.125417   -6.495089
 114 H     1.0000    0     1.008  -14.837549    1.488010   -9.344136
 115 C     6.0000    0    12.011  -10.155759  -14.747941    9.395095
 116 H     1.0000    0     1.008   -9.203399  -16.579242    9.120833
 117 H     1.0000    0     1.008  -10.286737  -14.447996   11.443800
 118 H     1.0000    0     1.008  -12.075129  -14.959528    8.635833
 119 C     6.0000    0    12.011  -17.725503   -2.788431   -9.398400
 120 H     1.0000    0     1.008  -18.832703   -1.038977   -9.537236
 121 H     1.0000    0     1.008  -17.430836   -3.459314  -11.347462
 122 H     1.0000    0     1.008  -18.879233   -4.223544   -8.442750
 123 C     6.0000    0    12.011   11.529550  -13.706144   -9.464257
 124 H     1.0000    0     1.008   11.921294  -13.099317  -11.417162
 125 H     1.0000    0     1.008   13.367038  -13.929659   -8.527735
 126 H     1.0000    0     1.008   10.627181  -15.570210   -9.597235
 127 C     6.0000    0    12.011   17.743682   -1.459547    9.554346
 128 H     1.0000    0     1.008   18.813095    0.318870    9.382842
 129 H     1.0000    0     1.008   17.530169   -1.828665   11.584904
 130 H     1.0000    0     1.008   18.933799   -2.948925    8.735745
 131 C     6.0000    0    12.011   -7.451491   16.094482    9.653917
 132 H     1.0000    0     1.008   -6.675095   16.182110   11.584042
 133 H     1.0000    0     1.008   -6.914784   17.865847    8.716558
 134 H     1.0000    0     1.008   -9.516791   16.051196    9.848516
 135 C     6.0000    0    12.011    6.171810   16.752065   -9.528156
 136 H     1.0000    0     1.008    5.423193   16.795576  -11.470696
 137 H     1.0000    0     1.008    5.480669   18.466591   -8.586328
 138 H     1.0000    0     1.008    8.236997   16.874865   -9.687360
* core charge reduced due to ECP

--------------------------------
INTERNAL COORDINATES (ANGSTROEM)
--------------------------------
 C      0   0   0     0.000000000000     0.00000000     0.00000000
 C      1   0   0     2.323311503360     0.00000000     0.00000000
 C      2   1   0     1.383346596385    91.85479493     0.00000000
 C      1   2   3     1.392314047937    90.68384748   359.91315561
 C      1   2   3     1.466764055624   145.58308335   179.27386129
 C      5   1   2     2.323710406756   145.58756360     0.30669894
 C      6   5   1     1.383419213411    91.84224318   179.86167186
 C      5   1   2     1.392383205377   123.71272049   180.11456657
 H      2   1   3     1.092046796965   147.60294135   179.45509109
 H      3   2   1     1.090513771847   118.44952657   178.63307417
 H      4   1   2     1.089661535350   118.86484519   178.79246514
 H      6   5   1     1.092131246130   147.45667692     0.95505823
 H      7   6   5     1.090592110771   118.45279890   181.17976955
 H      8   5   1     1.090013541196   118.98328740     1.51683413
 C      9   2   1     3.008306012793   123.44201157   326.28612096
 C     15   9   2     2.323966774670    66.57586342   119.47485070
 C     16  15   9     1.383270423517    91.86296684   110.43617535
 C     15   9   2     1.392507482485   108.87716342   201.73126252
 C     15   9   2     1.466956183814    98.49289876   331.96401080
 C     19  15   9     2.323951870479   145.51075108    59.02983437
 C     20  19  15     1.383181793263    91.86377073   180.25912857
 C     19  15   9     1.392756254328   123.81638678   239.25118743
 H     16  15   9     1.092080621012   147.52217244   291.26207325
 H     17  16  15     1.090428485902   118.46777199   181.11978291
 H     18  15   9     1.089784229034   119.00595001   115.87119720
 H     20  19  15     1.092033587422   147.51604602     1.25809564
 H     21  20  19     1.090484104943   118.51823333   181.22268695
 H     22  19  15     1.089754564686   118.98239552     1.29872635
 C     12   6   5     3.051744555524   122.55317882   323.76443264
 C     29  12   6     2.323760585160    66.42376789   120.87654271
 C     30  29  12     1.383131182687    91.85575976   112.41690848
 C     29  12   6     1.392850589237   110.57458012   202.25717840
 C     29  12   6     1.466849437580    97.79680148   332.91605235
 C     33  29  12     2.323469990722   145.54448023    59.33682307
 C     34  33  29     1.383178661939    91.87371056   179.37517791
 C     33  29  12     1.392257476293   123.80551025   238.57186962
 H     30  29  12     1.092045302449   147.50518756   293.25884559
 H     32  29  12     1.090003251553   118.95841368   116.31873072
 H     34  33  29     1.092145877250   147.52078324   358.89095330
 H     36  33  29     1.089534175538   118.92859440   359.16197369
 N     30  29  12     1.344976465595    31.08630662   292.47630359
 N      6   5   1     1.345083300202    31.08777845     0.19166423
 N     20  19  15     1.345063621015    31.07617275     0.61568747
 N      2   1   3     1.345139818593    31.09572402   180.36572095
 N     16  15   9     1.344992658620    31.07608285   290.97670878
 N     34  33  29     1.344995466738    31.09716022   359.75948606
 Ru    46  34  33     2.075600526002   125.60308125   179.86662254
 H     31  30  29     1.090413680425   118.44761435   181.05092897
 H     35  34  33     1.090433003373   118.38724300   178.68069093
 C      8   5   1     1.401926913971   121.00069147   180.24797957
 C      4   1   2     1.401983821094   121.02881598     0.15454521
 C     18  15   9     1.402174554961   121.02212088   294.72170693
 C     22  19  15     1.402061051222   121.00071967   179.93453283
 C     32  29  12     1.402328057789   121.00229079   294.82926060
 C     36  33  29     1.402236833194   121.08745800   180.46654317
 C     52  18  15     1.471294747969   121.73777444   179.45983433
 C     56  52  18     1.406132019845   121.16714476   335.84249602
 C     56  52  18     1.406205220584   121.16988298   155.83553774
 C     57  56  52     1.389999870955   121.05125940   180.23953149
 H     57  56  52     1.092591773424   119.94560100   358.77047769
 C     58  56  52     1.390097333117   121.00884908   180.17799616
 H     58  56  52     1.092652647786   120.01025285   358.43804358
 C     59  57  56     1.402907264257   121.34113048   359.67417316
 H     59  57  56     1.093633475681   119.37162557   179.45622780
 H     61  58  56     1.093617333958   119.35477787   179.01192596
 C     53  22  19     1.471208378011   121.87227934   179.78336520
 C     66  53  22     1.406032837783   121.35850378   335.12536842
 C     66  53  22     1.406181450229   120.96595286   155.09215442
 C     67  66  53     1.390216462323   121.01000278   180.18777463
 H     67  66  53     1.092763669591   120.03435915   358.65785483
 C     68  66  53     1.389987897732   121.03297953   180.21643871
 H     68  66  53     1.092656104726   119.92729994   358.44337617
 C     69  67  66     1.402951717251   121.36938005   359.70049337
 H     69  67  66     1.093631154350   119.34840224   179.47413969
 H     71  68  66     1.093644789987   119.34933022   179.02460025
 C     51   4   1     1.471214313317   121.72786690   179.85295895
 C     76  51   4     1.406146232082   121.11083485   204.14322887
 C     76  51   4     1.406106161968   121.22349936    23.96233930
 C     77  76  51     1.390074731866   121.01776223   179.71770392
 H     77  76  51     1.092608003270   119.98738762     1.51044616
 C     78  76  51     1.389983030533   121.04134133   179.86722257
 H     78  76  51     1.092687686313   119.96678730     1.24470668
 C     79  77  76     1.402990308036   121.36476157     0.51288106
 H     79  77  76     1.093620488399   119.34647504   180.97347239
 H     81  78  76     1.093612764716   119.36462669   180.52800468
 C     50   8   5     1.471157412868   121.74548105   179.51287478
 C     86  50   8     1.405897400448   121.24597665   336.43408967
 C     86  50   8     1.406219284997   121.09388197   156.43639335
 C     87  86  50     1.390250502442   121.03119708   180.14068701
 H     87  86  50     1.092682112053   119.98339155   358.71087786
 C     88  86  50     1.389772692228   121.03831602   180.24822450
 H     88  86  50     1.092439928703   119.92829929   358.57686033
 C     89  87  86     1.402808624109   121.35926954   359.73597659
 H     89  87  86     1.093623298894   119.35792480   179.52729710
 H     91  88  86     1.093625020333   119.34638476   179.05380948
 C     55  36  33     1.471550722160   121.76706019   179.97737095
 C     96  55  36     1.406192706562   121.11772852   202.50908367
 C     96  55  36     1.406343298575   121.29573729    22.36633377
 C     97  96  55     1.390070385773   121.07101246   179.73628068
 H     97  96  55     1.092422483843   119.99876113     1.37111956
 C     98  96  55     1.389862263330   121.07835654   179.89286648
 H     98  96  55     1.092572518234   120.00835028     1.19383304
 C     99  97  96     1.402826371490   121.37001485     0.47225727
 H     99  97  96     1.093598260857   119.33527316   180.91648340
 H    101  98  96     1.093624195704   119.34795036   180.45658855
 C     54  32  29     1.471430290769   121.89233987   180.23975961
 C    106  54  32     1.405949407453   121.41611518   336.40135374
 C    106  54  32     1.406331110597   120.95848694   156.19684860
 C    107 106  54     1.390247638599   121.03073097   179.92407740
 H    107 106  54     1.092531761621   120.06360123   358.44928106
 C    108 106  54     1.389840684516   121.07461831   180.45867240
 H    108 106  54     1.092540718861   119.92013619   358.72004674
 C    109 107 106     1.402861397562   121.38282969   359.72660328
 H    109 107 106     1.093644699359   119.33703521   179.53637123
 H    111 108 106     1.093635308407   119.35424911   178.99635176
 C    103  99  97     1.492853258851   121.23104308   178.39949297
 H    116 103  99     1.101893001006   110.99685370   269.87802288
 H    116 103  99     1.097875604648   111.89961038    28.86097286
 H    116 103  99     1.097992292192   111.93832716   150.93642376
 C    113 109 107     1.492885125595   121.25990411   178.84369753
 H    120 113 109     1.098059336934   111.89275535   149.66390724
 H    120 113 109     1.101877821820   111.01246764   268.53446578
 H    120 113 109     1.097823950408   111.93888424    27.62329668
 C     93  89  87     1.492975369700   121.29537987   178.83339844
 H    124  93  89     1.101850850548   111.01751055   266.73845338
 H    124  93  89     1.097758416359   111.95297408    25.92878970
 H    124  93  89     1.098178879132   111.86623968   147.96006844
 C     83  79  77     1.492867503750   121.19596783   178.37723942
 H    128  83  79     1.101887060193   111.00395086   271.10041098
 H    128  83  79     1.097963218902   111.88937506    30.02934097
 H    128  83  79     1.097929147231   111.94891208   152.08612951
 C     63  59  57     1.492894203803   121.22942162   178.76927365
 H    132  63  59     1.101890118263   110.99577569   269.64382379
 H    132  63  59     1.097890327385   111.93947823    28.67656299
 H    132  63  59     1.097989624480   111.88922896   150.74455026
 C     73  69  67     1.492923848143   121.24317388   178.78081033
 H    136  73  69     1.101881507300   111.00441370   269.43867471
 H    136  73  69     1.097875637709   111.94495348    28.48549231
 H    136  73  69     1.098017062617   111.88637432   150.54029778

---------------------------
INTERNAL COORDINATES (A.U.)
---------------------------
 C      0   0   0     0.000000000000     0.00000000     0.00000000
 C      1   0   0     4.390422465140     0.00000000     0.00000000
 C      2   1   0     2.614146215459    91.85479493     0.00000000
 C      1   2   3     2.631092243012    90.68384748   359.91315561
 C      1   2   3     2.771782368209   145.58308335   179.27386129
 C      5   1   2     4.391176283311   145.58756360     0.30669894
 C      6   5   1     2.614283441751    91.84224318   179.86167186
 C      5   1   2     2.631222931635   123.71272049   180.11456657
 H      2   1   3     2.063669371690   147.60294135   179.45509109
 H      3   2   1     2.060772374059   118.44952657   178.63307417
 H      4   1   2     2.059161880480   118.86484519   178.79246514
 H      6   5   1     2.063828957483   147.45667692     0.95505823
 H      7   6   5     2.060920413173   118.45279890   181.17976955
 H      8   5   1     2.059827075126   118.98328740     1.51683413
 C      9   2   1     5.684874491208   123.44201157   326.28612096
 C     15   9   2     4.391660748458    66.57586342   119.47485070
 C     16  15   9     2.614002269600    91.86296684   110.43617535
 C     15   9   2     2.631457781333   108.87716342   201.73126252
 C     15   9   2     2.772145437870    98.49289876   331.96401080
 C     19  15   9     4.391632583619   145.51075108    59.02983437
 C     20  19  15     2.613834782693    91.86377073   180.25912857
 C     19  15   9     2.631927891985   123.81638678   239.25118743
 H     16  15   9     2.063733289874   147.52217244   291.26207325
 H     17  16  15     2.060611206981   118.46777199   181.11978291
 H     18  15   9     2.059393737941   119.00595001   115.87119720
 H     20  19  15     2.063644409271   147.51604602     1.25809564
 H     21  20  19     2.060716311737   118.51823333   181.22268695
 H     22  19  15     2.059337680447   118.98239552     1.29872635
 C     12   6   5     5.766961440625   122.55317882   323.76443264
 C     29  12   6     4.391271106754    66.42376789   120.87654271
 C     30  29  12     2.613739142565    91.85575976   112.41690848
 C     29  12   6     2.632106159129   110.57458012   202.25717840
 C     29  12   6     2.771943716723    97.79680148   332.91605235
 C     33  29  12     4.390721962849   145.54448023    59.33682307
 C     34  33  29     2.613828865348    91.87371056   179.37517791
 C     33  29  12     2.630985338098   123.80551025   238.57186962
 H     30  29  12     2.063666547464   147.50518756   293.25884559
 H     32  29  12     2.059807630519   118.95841368   116.31873072
 H     34  33  29     2.063856606294   147.52078324   358.89095330
 H     36  33  29     2.058921205314   118.92859440   359.16197369
 N     30  29  12     2.541637176544    31.08630662   292.47630359
 N      6   5   1     2.541839064693    31.08777845     0.19166423
 N     20  19  15     2.541801876418    31.07617275     0.61568747
 N      2   1   3     2.541945868974    31.09572402   180.36572095
 N     16  15   9     2.541667776927    31.07608285   290.97670878
 N     34  33  29     2.541673083500    31.09716022   359.75948606
 Ru    46  34  33     3.922316557567   125.60308125   179.86662254
 H     31  30  29     2.060583228685   118.44761435   181.05092897
 H     35  34  33     2.060619743765   118.38724300   178.68069093
 C      8   5   1     2.649257927179   121.00069147   180.24797957
 C      4   1   2     2.649365466056   121.02881598     0.15454521
 C     18  15   9     2.649725900830   121.02212088   294.72170693
 C     22  19  15     2.649511409848   121.00071967   179.93453283
 C     32  29  12     2.650015979134   121.00229079   294.82926060
 C     36  33  29     2.649843589634   121.08745800   180.46654317
 C     52  18  15     2.780344135938   121.73777444   179.45983433
 C     56  52  18     2.657204425644   121.16714476   335.84249602
 C     56  52  18     2.657342754994   121.16988298   155.83553774
 C     57  56  52     2.626719082290   121.05125940   180.23953149
 H     57  56  52     2.064699227947   119.94560100   358.77047769
 C     58  56  52     2.626903259086   121.00884908   180.17799616
 H     58  56  52     2.064814263819   120.01025285   358.43804358
 C     59  57  56     2.651110520735   121.34113048   359.67417316
 H     59  57  56     2.066667759925   119.37162557   179.45622780
 H     61  58  56     2.066637256490   119.35477787   179.01192596
 C     53  22  19     2.780180920371   121.87227934   179.78336520
 C     66  53  22     2.657016998709   121.35850378   335.12536842
 C     66  53  22     2.657297835534   120.96595286   155.09215442
 C     67  66  53     2.627128380659   121.01000278   180.18777463
 H     67  66  53     2.065024064626   120.03435915   358.65785483
 C     68  66  53     2.626696456178   121.03297953   180.21643871
 H     68  66  53     2.064820796488   119.92729994   358.44337617
 C     69  67  66     2.651194524719   121.36938005   359.70049337
 H     69  67  66     2.066663373246   119.34840224   179.47413969
 H     71  68  66     2.066689140866   119.34933022   179.02460025
 C     51   4   1     2.780192136474   121.72786690   179.85295895
 C     76  51   4     2.657231282880   121.11083485   204.14322887
 C     76  51   4     2.657155561339   121.22349936    23.96233930
 C     77  76  51     2.626860548911   121.01776223   179.71770392
 H     77  76  51     2.064729897910   119.98738762     1.51044616
 C     78  76  51     2.626687258505   121.04134133   179.86722257
 H     78  76  51     2.064880477040   119.96678730     1.24470668
 C     79  77  76     2.651267450734   121.36476157     0.51288106
 H     79  77  76     2.066643217519   119.34647504   180.97347239
 H     81  78  76     2.066628621874   119.36462669   180.52800468
 C     50   8   5     2.780084610209   121.74548105   179.51287478
 C     86  50   8     2.656761059238   121.24597665   336.43408967
 C     86  50   8     2.657369332883   121.09388197   156.43639335
 C     87  86  50     2.627192707162   121.03119708   180.14068701
 H     87  86  50     2.064869943215   119.98339155   358.71087786
 C     88  86  50     2.626289776713   121.03831602   180.24822450
 H     88  86  50     2.064412283009   119.92829929   358.57686033
 C     89  87  86     2.650924117869   121.35926954   359.73597659
 H     89  87  86     2.066648528584   119.35792480   179.52729710
 H     91  88  86     2.066651781633   119.34638476   179.05380948
 C     55  36  33     2.780827857056   121.76706019   179.97737095
 C     96  55  36     2.657319106920   121.11772852   202.50908367
 C     96  55  36     2.657603684582   121.29573729    22.36633377
 C     97  96  55     2.626852335984   121.07101246   179.73628068
 H     97  96  55     2.064379317002   119.99876113     1.37111956
 C     98  96  55     2.626459041566   121.07835654   179.89286648
 H     98  96  55     2.064662840912   120.00835028     1.19383304
 C     99  97  96     2.650957655558   121.37001485     0.47225727
 H     99  97  96     2.066601213552   119.33527316   180.91648340
 H    101  98  96     2.066650223311   119.34795036   180.45658855
 C     54  32  29     2.780600274710   121.89233987   180.23975961
 C    106  54  32     2.656859338235   121.41611518   336.40135374
 C    106  54  32     2.657580652642   120.95848694   156.19684860
 C    107 106  54     2.627187295282   121.03073097   179.92407740
 H    107 106  54     2.064585822074   120.06360123   358.44928106
 C    108 106  54     2.626418263518   121.07461831   180.45867240
 H    108 106  54     2.064602748804   119.92013619   358.72004674
 C    109 107 106     2.651023845242   121.38282969   359.72660328
 H    109 107 106     2.066688969604   119.33703521   179.53637123
 H    111 108 106     2.066671223276   119.35424911   178.99635176
 C    103  99  97     2.821083817360   121.23104308   178.39949297
 H    116 103  99     2.082276000787   110.99685370   269.87802288
 H    116 103  99     2.074684221898   111.89961038    28.86097286
 H    116 103  99     2.074904729400   111.93832716   150.93642376
 C    113 109 107     2.821144036779   121.25990411   178.84369753
 H    120 113 109     2.075031425600   111.89275535   149.66390724
 H    120 113 109     2.082247316281   111.01246764   268.53446578
 H    120 113 109     2.074586609530   111.93888424    27.62329668
 C     93  89  87     2.821314573422   121.29537987   178.83339844
 H    124  93  89     2.082196347964   111.01751055   266.73845338
 H    124  93  89     2.074462768125   111.95297408    25.92878970
 H    124  93  89     2.075257327616   111.86623968   147.96006844
 C     83  79  77     2.821110736319   121.19596783   178.37723942
 H    128  83  79     2.082264774277   111.00395086   271.10041098
 H    128  83  79     2.074849788844   111.88937506    30.02934097
 H    128  83  79     2.074785402716   111.94891208   152.08612951
 C     63  59  57     2.821161192106   121.22942162   178.76927365
 H    132  63  59     2.082270553191   110.99577569   269.64382379
 H    132  63  59     2.074712043839   111.93947823    28.67656299
 H    132  63  59     2.074899688154   111.88922896   150.74455026
 C     73  69  67     2.821217211790   121.24317388   178.78081033
 H    136  73  69     2.082254280830   111.00441370   269.43867471
 H    136  73  69     2.074684284375   111.94495348    28.48549231
 H    136  73  69     2.074951538719   111.88637432   150.54029778

---------------------
BASIS SET INFORMATION
---------------------
There are 4 groups of distinct atoms

 Group   1 Type C   : 7s4p1d contracted to 3s2p1d pattern {511/31/1}
 Group   2 Type H   : 4s1p contracted to 2s1p pattern {31/1}
 Group   3 Type N   : 7s4p1d contracted to 3s2p1d pattern {511/31/1}
 Group   4 Type Ru  : 7s6p5d1f contracted to 5s3p2d1f pattern {31111/411/41/1}

Atom   0C    basis set group =>   1
Atom   1C    basis set group =>   1
Atom   2C    basis set group =>   1
Atom   3C    basis set group =>   1
Atom   4C    basis set group =>   1
Atom   5C    basis set group =>   1
Atom   6C    basis set group =>   1
Atom   7C    basis set group =>   1
Atom   8H    basis set group =>   2
Atom   9H    basis set group =>   2
Atom  10H    basis set group =>   2
Atom  11H    basis set group =>   2
Atom  12H    basis set group =>   2
Atom  13H    basis set group =>   2
Atom  14C    basis set group =>   1
Atom  15C    basis set group =>   1
Atom  16C    basis set group =>   1
Atom  17C    basis set group =>   1
Atom  18C    basis set group =>   1
Atom  19C    basis set group =>   1
Atom  20C    basis set group =>   1
Atom  21C    basis set group =>   1
Atom  22H    basis set group =>   2
Atom  23H    basis set group =>   2
Atom  24H    basis set group =>   2
Atom  25H    basis set group =>   2
Atom  26H    basis set group =>   2
Atom  27H    basis set group =>   2
Atom  28C    basis set group =>   1
Atom  29C    basis set group =>   1
Atom  30C    basis set group =>   1
Atom  31C    basis set group =>   1
Atom  32C    basis set group =>   1
Atom  33C    basis set group =>   1
Atom  34C    basis set group =>   1
Atom  35C    basis set group =>   1
Atom  36H    basis set group =>   2
Atom  37H    basis set group =>   2
Atom  38H    basis set group =>   2
Atom  39H    basis set group =>   2
Atom  40N    basis set group =>   3
Atom  41N    basis set group =>   3
Atom  42N    basis set group =>   3
Atom  43N    basis set group =>   3
Atom  44N    basis set group =>   3
Atom  45N    basis set group =>   3
Atom  46Ru   basis set group =>   4
Atom  47H    basis set group =>   2
Atom  48H    basis set group =>   2
Atom  49C    basis set group =>   1
Atom  50C    basis set group =>   1
Atom  51C    basis set group =>   1
Atom  52C    basis set group =>   1
Atom  53C    basis set group =>   1
Atom  54C    basis set group =>   1
Atom  55C    basis set group =>   1
Atom  56C    basis set group =>   1
Atom  57C    basis set group =>   1
Atom  58C    basis set group =>   1
Atom  59H    basis set group =>   2
Atom  60C    basis set group =>   1
Atom  61H    basis set group =>   2
Atom  62C    basis set group =>   1
Atom  63H    basis set group =>   2
Atom  64H    basis set group =>   2
Atom  65C    basis set group =>   1
Atom  66C    basis set group =>   1
Atom  67C    basis set group =>   1
Atom  68C    basis set group =>   1
Atom  69H    basis set group =>   2
Atom  70C    basis set group =>   1
Atom  71H    basis set group =>   2
Atom  72C    basis set group =>   1
Atom  73H    basis set group =>   2
Atom  74H    basis set group =>   2
Atom  75C    basis set group =>   1
Atom  76C    basis set group =>   1
Atom  77C    basis set group =>   1
Atom  78C    basis set group =>   1
Atom  79H    basis set group =>   2
Atom  80C    basis set group =>   1
Atom  81H    basis set group =>   2
Atom  82C    basis set group =>   1
Atom  83H    basis set group =>   2
Atom  84H    basis set group =>   2
Atom  85C    basis set group =>   1
Atom  86C    basis set group =>   1
Atom  87C    basis set group =>   1
Atom  88C    basis set group =>   1
Atom  89H    basis set group =>   2
Atom  90C    basis set group =>   1
Atom  91H    basis set group =>   2
Atom  92C    basis set group =>   1
Atom  93H    basis set group =>   2
Atom  94H    basis set group =>   2
Atom  95C    basis set group =>   1
Atom  96C    basis set group =>   1
Atom  97C    basis set group =>   1
Atom  98C    basis set group =>   1
Atom  99H    basis set group =>   2
Atom 100C    basis set group =>   1
Atom 101H    basis set group =>   2
Atom 102C    basis set group =>   1
Atom 103H    basis set group =>   2
Atom 104H    basis set group =>   2
Atom 105C    basis set group =>   1
Atom 106C    basis set group =>   1
Atom 107C    basis set group =>   1
Atom 108C    basis set group =>   1
Atom 109H    basis set group =>   2
Atom 110C    basis set group =>   1
Atom 111H    basis set group =>   2
Atom 112C    basis set group =>   1
Atom 113H    basis set group =>   2
Atom 114H    basis set group =>   2
Atom 115C    basis set group =>   1
Atom 116H    basis set group =>   2
Atom 117H    basis set group =>   2
Atom 118H    basis set group =>   2
Atom 119C    basis set group =>   1
Atom 120H    basis set group =>   2
Atom 121H    basis set group =>   2
Atom 122H    basis set group =>   2
Atom 123C    basis set group =>   1
Atom 124H    basis set group =>   2
Atom 125H    basis set group =>   2
Atom 126H    basis set group =>   2
Atom 127C    basis set group =>   1
Atom 128H    basis set group =>   2
Atom 129H    basis set group =>   2
Atom 130H    basis set group =>   2
Atom 131C    basis set group =>   1
Atom 132H    basis set group =>   2
Atom 133H    basis set group =>   2
Atom 134H    basis set group =>   2
Atom 135C    basis set group =>   1
Atom 136H    basis set group =>   2
Atom 137H    basis set group =>   2
Atom 138H    basis set group =>   2
---------------------------------
AUXILIARY/J BASIS SET INFORMATION
---------------------------------
There are 4 groups of distinct atoms

 Group   1 Type C   : 12s5p4d2f1g contracted to 6s4p3d1f1g pattern {711111/2111/211/2/1}
 Group   2 Type H   : 5s2p1d contracted to 3s1p1d pattern {311/2/1}
 Group   3 Type N   : 12s5p4d2f1g contracted to 6s4p3d1f1g pattern {711111/2111/211/2/1}
 Group   4 Type Ru  : 11s5p5d3f3g contracted to 8s5p5d2f3g pattern {41111111/11111/11111/21/111}

Atom   0C    basis set group =>   1
Atom   1C    basis set group =>   1
Atom   2C    basis set group =>   1
Atom   3C    basis set group =>   1
Atom   4C    basis set group =>   1
Atom   5C    basis set group =>   1
Atom   6C    basis set group =>   1
Atom   7C    basis set group =>   1
Atom   8H    basis set group =>   2
Atom   9H    basis set group =>   2
Atom  10H    basis set group =>   2
Atom  11H    basis set group =>   2
Atom  12H    basis set group =>   2
Atom  13H    basis set group =>   2
Atom  14C    basis set group =>   1
Atom  15C    basis set group =>   1
Atom  16C    basis set group =>   1
Atom  17C    basis set group =>   1
Atom  18C    basis set group =>   1
Atom  19C    basis set group =>   1
Atom  20C    basis set group =>   1
Atom  21C    basis set group =>   1
Atom  22H    basis set group =>   2
Atom  23H    basis set group =>   2
Atom  24H    basis set group =>   2
Atom  25H    basis set group =>   2
Atom  26H    basis set group =>   2
Atom  27H    basis set group =>   2
Atom  28C    basis set group =>   1
Atom  29C    basis set group =>   1
Atom  30C    basis set group =>   1
Atom  31C    basis set group =>   1
Atom  32C    basis set group =>   1
Atom  33C    basis set group =>   1
Atom  34C    basis set group =>   1
Atom  35C    basis set group =>   1
Atom  36H    basis set group =>   2
Atom  37H    basis set group =>   2
Atom  38H    basis set group =>   2
Atom  39H    basis set group =>   2
Atom  40N    basis set group =>   3
Atom  41N    basis set group =>   3
Atom  42N    basis set group =>   3
Atom  43N    basis set group =>   3
Atom  44N    basis set group =>   3
Atom  45N    basis set group =>   3
Atom  46Ru   basis set group =>   4
Atom  47H    basis set group =>   2
Atom  48H    basis set group =>   2
Atom  49C    basis set group =>   1
Atom  50C    basis set group =>   1
Atom  51C    basis set group =>   1
Atom  52C    basis set group =>   1
Atom  53C    basis set group =>   1
Atom  54C    basis set group =>   1
Atom  55C    basis set group =>   1
Atom  56C    basis set group =>   1
Atom  57C    basis set group =>   1
Atom  58C    basis set group =>   1
Atom  59H    basis set group =>   2
Atom  60C    basis set group =>   1
Atom  61H    basis set group =>   2
Atom  62C    basis set group =>   1
Atom  63H    basis set group =>   2
Atom  64H    basis set group =>   2
Atom  65C    basis set group =>   1
Atom  66C    basis set group =>   1
Atom  67C    basis set group =>   1
Atom  68C    basis set group =>   1
Atom  69H    basis set group =>   2
Atom  70C    basis set group =>   1
Atom  71H    basis set group =>   2
Atom  72C    basis set group =>   1
Atom  73H    basis set group =>   2
Atom  74H    basis set group =>   2
Atom  75C    basis set group =>   1
Atom  76C    basis set group =>   1
Atom  77C    basis set group =>   1
Atom  78C    basis set group =>   1
Atom  79H    basis set group =>   2
Atom  80C    basis set group =>   1
Atom  81H    basis set group =>   2
Atom  82C    basis set group =>   1
Atom  83H    basis set group =>   2
Atom  84H    basis set group =>   2
Atom  85C    basis set group =>   1
Atom  86C    basis set group =>   1
Atom  87C    basis set group =>   1
Atom  88C    basis set group =>   1
Atom  89H    basis set group =>   2
Atom  90C    basis set group =>   1
Atom  91H    basis set group =>   2
Atom  92C    basis set group =>   1
Atom  93H    basis set group =>   2
Atom  94H    basis set group =>   2
Atom  95C    basis set group =>   1
Atom  96C    basis set group =>   1
Atom  97C    basis set group =>   1
Atom  98C    basis set group =>   1
Atom  99H    basis set group =>   2
Atom 100C    basis set group =>   1
Atom 101H    basis set group =>   2
Atom 102C    basis set group =>   1
Atom 103H    basis set group =>   2
Atom 104H    basis set group =>   2
Atom 105C    basis set group =>   1
Atom 106C    basis set group =>   1
Atom 107C    basis set group =>   1
Atom 108C    basis set group =>   1
Atom 109H    basis set group =>   2
Atom 110C    basis set group =>   1
Atom 111H    basis set group =>   2
Atom 112C    basis set group =>   1
Atom 113H    basis set group =>   2
Atom 114H    basis set group =>   2
Atom 115C    basis set group =>   1
Atom 116H    basis set group =>   2
Atom 117H    basis set group =>   2
Atom 118H    basis set group =>   2
Atom 119C    basis set group =>   1
Atom 120H    basis set group =>   2
Atom 121H    basis set group =>   2
Atom 122H    basis set group =>   2
Atom 123C    basis set group =>   1
Atom 124H    basis set group =>   2
Atom 125H    basis set group =>   2
Atom 126H    basis set group =>   2
Atom 127C    basis set group =>   1
Atom 128H    basis set group =>   2
Atom 129H    basis set group =>   2
Atom 130H    basis set group =>   2
Atom 131C    basis set group =>   1
Atom 132H    basis set group =>   2
Atom 133H    basis set group =>   2
Atom 134H    basis set group =>   2
Atom 135C    basis set group =>   1
Atom 136H    basis set group =>   2
Atom 137H    basis set group =>   2
Atom 138H    basis set group =>   2
---------------------------------
AUXILIARY/C BASIS SET INFORMATION
---------------------------------
There are 4 groups of distinct atoms

 Group   1 Type C   : 8s6p5d3f contracted to 6s5p4d1f pattern {311111/21111/2111/3}
 Group   2 Type H   : 4s3p2d contracted to 3s2p1d pattern {211/21/2}
 Group   3 Type N   : 8s6p5d3f contracted to 6s5p4d1f pattern {311111/21111/2111/3}
 Group   4 Type Ru  : 8s7p6d5f3g1h contracted to 8s7p6d5f3g1h pattern {11111111/1111111/111111/11111/111/1}

Atom   0C    basis set group =>   1
Atom   1C    basis set group =>   1
Atom   2C    basis set group =>   1
Atom   3C    basis set group =>   1
Atom   4C    basis set group =>   1
Atom   5C    basis set group =>   1
Atom   6C    basis set group =>   1
Atom   7C    basis set group =>   1
Atom   8H    basis set group =>   2
Atom   9H    basis set group =>   2
Atom  10H    basis set group =>   2
Atom  11H    basis set group =>   2
Atom  12H    basis set group =>   2
Atom  13H    basis set group =>   2
Atom  14C    basis set group =>   1
Atom  15C    basis set group =>   1
Atom  16C    basis set group =>   1
Atom  17C    basis set group =>   1
Atom  18C    basis set group =>   1
Atom  19C    basis set group =>   1
Atom  20C    basis set group =>   1
Atom  21C    basis set group =>   1
Atom  22H    basis set group =>   2
Atom  23H    basis set group =>   2
Atom  24H    basis set group =>   2
Atom  25H    basis set group =>   2
Atom  26H    basis set group =>   2
Atom  27H    basis set group =>   2
Atom  28C    basis set group =>   1
Atom  29C    basis set group =>   1
Atom  30C    basis set group =>   1
Atom  31C    basis set group =>   1
Atom  32C    basis set group =>   1
Atom  33C    basis set group =>   1
Atom  34C    basis set group =>   1
Atom  35C    basis set group =>   1
Atom  36H    basis set group =>   2
Atom  37H    basis set group =>   2
Atom  38H    basis set group =>   2
Atom  39H    basis set group =>   2
Atom  40N    basis set group =>   3
Atom  41N    basis set group =>   3
Atom  42N    basis set group =>   3
Atom  43N    basis set group =>   3
Atom  44N    basis set group =>   3
Atom  45N    basis set group =>   3
Atom  46Ru   basis set group =>   4
Atom  47H    basis set group =>   2
Atom  48H    basis set group =>   2
Atom  49C    basis set group =>   1
Atom  50C    basis set group =>   1
Atom  51C    basis set group =>   1
Atom  52C    basis set group =>   1
Atom  53C    basis set group =>   1
Atom  54C    basis set group =>   1
Atom  55C    basis set group =>   1
Atom  56C    basis set group =>   1
Atom  57C    basis set group =>   1
Atom  58C    basis set group =>   1
Atom  59H    basis set group =>   2
Atom  60C    basis set group =>   1
Atom  61H    basis set group =>   2
Atom  62C    basis set group =>   1
Atom  63H    basis set group =>   2
Atom  64H    basis set group =>   2
Atom  65C    basis set group =>   1
Atom  66C    basis set group =>   1
Atom  67C    basis set group =>   1
Atom  68C    basis set group =>   1
Atom  69H    basis set group =>   2
Atom  70C    basis set group =>   1
Atom  71H    basis set group =>   2
Atom  72C    basis set group =>   1
Atom  73H    basis set group =>   2
Atom  74H    basis set group =>   2
Atom  75C    basis set group =>   1
Atom  76C    basis set group =>   1
Atom  77C    basis set group =>   1
Atom  78C    basis set group =>   1
Atom  79H    basis set group =>   2
Atom  80C    basis set group =>   1
Atom  81H    basis set group =>   2
Atom  82C    basis set group =>   1
Atom  83H    basis set group =>   2
Atom  84H    basis set group =>   2
Atom  85C    basis set group =>   1
Atom  86C    basis set group =>   1
Atom  87C    basis set group =>   1
Atom  88C    basis set group =>   1
Atom  89H    basis set group =>   2
Atom  90C    basis set group =>   1
Atom  91H    basis set group =>   2
Atom  92C    basis set group =>   1
Atom  93H    basis set group =>   2
Atom  94H    basis set group =>   2
Atom  95C    basis set group =>   1
Atom  96C    basis set group =>   1
Atom  97C    basis set group =>   1
Atom  98C    basis set group =>   1
Atom  99H    basis set group =>   2
Atom 100C    basis set group =>   1
Atom 101H    basis set group =>   2
Atom 102C    basis set group =>   1
Atom 103H    basis set group =>   2
Atom 104H    basis set group =>   2
Atom 105C    basis set group =>   1
Atom 106C    basis set group =>   1
Atom 107C    basis set group =>   1
Atom 108C    basis set group =>   1
Atom 109H    basis set group =>   2
Atom 110C    basis set group =>   1
Atom 111H    basis set group =>   2
Atom 112C    basis set group =>   1
Atom 113H    basis set group =>   2
Atom 114H    basis set group =>   2
Atom 115C    basis set group =>   1
Atom 116H    basis set group =>   2
Atom 117H    basis set group =>   2
Atom 118H    basis set group =>   2
Atom 119C    basis set group =>   1
Atom 120H    basis set group =>   2
Atom 121H    basis set group =>   2
Atom 122H    basis set group =>   2
Atom 123C    basis set group =>   1
Atom 124H    basis set group =>   2
Atom 125H    basis set group =>   2
Atom 126H    basis set group =>   2
Atom 127C    basis set group =>   1
Atom 128H    basis set group =>   2
Atom 129H    basis set group =>   2
Atom 130H    basis set group =>   2
Atom 131C    basis set group =>   1
Atom 132H    basis set group =>   2
Atom 133H    basis set group =>   2
Atom 134H    basis set group =>   2
Atom 135C    basis set group =>   1
Atom 136H    basis set group =>   2
Atom 137H    basis set group =>   2
Atom 138H    basis set group =>   2
-------------------------
ECP PARAMETER INFORMATION
-------------------------

 Group 1, Type Ru ECP Def2-ECP (replacing 28 core electrons, lmax=3)

Atom  46Ru   ECP group =>   1



           ************************************************************
           *        Program running with 8 parallel MPI-processes     *
           *              working on a common directory               *
           ************************************************************
------------------------------------------------------------------------------
                           ORCA GTO INTEGRAL CALCULATION
                           -- RI-GTO INTEGRALS CHOSEN --
------------------------------------------------------------------------------
------------------------------------------------------------------------------
                   ___                                                        
                  /   \      - P O W E R E D   B Y -                         
                 /     \                                                     
                 |  |  |   _    _      __       _____    __    __             
                 |  |  |  | |  | |    /  \     |  _  \  |  |  /  |          
                  \  \/   | |  | |   /    \    | | | |  |  | /  /          
                 / \  \   | |__| |  /  /\  \   | |_| |  |  |/  /          
                |  |  |   |  __  | /  /__\  \  |    /   |      \           
                |  |  |   | |  | | |   __   |  |    \   |  |\   \          
                \     /   | |  | | |  |  |  |  | |\  \  |  | \   \       
                 \___/    |_|  |_| |__|  |__|  |_| \__\ |__|  \__/        
                                                                              
                      - O R C A' S   B I G   F R I E N D -                    
                                      &                                       
                       - I N T E G R A L  F E E D E R -                       
                                                                              
 v1 FN, 2020, v2 2021                                                         
------------------------------------------------------------------------------


Reading SHARK input file Ru-arylbpy_3.SHARKINP.tmp ... ok
----------------------
SHARK INTEGRAL PACKAGE
----------------------

Number of atoms                             ...    139
Number of basis functions                   ...   1423
Number of shells                            ...    659
Maximum angular momentum                    ...      3
Integral batch strategy                     ... SHARK/LIBINT Hybrid
RI-J (if used) integral strategy            ... SPLIT-RIJ (Revised 2003 algorithm where possible)
Printlevel                                  ...      1
Contraction scheme used                     ... SEGMENTED contraction
Coulomb Range Separation                    ... NOT USED
Exchange Range Separation                   ... Long Range
   Mu parameter                             ...  0.300000
   Scaling (regular/separated)              ...  0.530000  0.470000
Finite Nucleus Model                        ... NOT USED
Auxiliary Coulomb fitting basis             ... AVAILABLE
   # of basis functions in Aux-J            ...   4571
   # of shells in Aux-J                     ...   1493
   Maximum angular momentum in Aux-J        ...      4
Auxiliary J/K fitting basis                 ... NOT available
Auxiliary Correlation fitting basis         ... AVAILABLE
   # of basis functions in Aux-C            ...   4716
   # of shells in Aux-C                     ...   1638
   Maximum angular momentum in Aux-C        ...      5
Auxiliary 'external' fitting basis          ... NOT available
Integral threshold                          ...     2.500000e-11
Primitive cut-off                           ...     2.500000e-12
Primitive pair pre-selection threshold      ...     2.500000e-12

Calculating pre-screening integrals         ... done (  0.7 sec) Dimension = 659
Organizing shell pair data                  ... done (  1.9 sec)
Shell pair information
Total number of shell pairs                 ...    217470
Shell pairs after pre-screening             ...     70310
Total number of primitive shell pairs       ...    789349
Primitive shell pairs kept                  ...    145693
          la=0 lb=0:  21495 shell pairs
          la=1 lb=0:  26571 shell pairs
          la=1 lb=1:   8434 shell pairs
          la=2 lb=0:   7920 shell pairs
          la=2 lb=1:   4951 shell pairs
          la=2 lb=2:    646 shell pairs
          la=3 lb=0:    161 shell pairs
          la=3 lb=1:     99 shell pairs
          la=3 lb=2:     32 shell pairs
          la=3 lb=3:      1 shell pairs

Calculating one electron integrals          ... done (  0.9 sec)
Calculating ECP integrals                   ... done (  9.4 sec)
Calculating RI/J V-Matrix + Cholesky decomp.... done (  3.9 sec)
Calculating RI/C V-Matrix + Cholesky decomp.... done (  4.0 sec)
Calculating Nuclear repulsion               ... done (  0.0 sec) ENN=  12382.033711829410 Eh

SHARK setup successfully completed in  23.7 seconds

Maximum memory used throughout the entire GTOINT-calculation: 165.9 MB


           ************************************************************
           *        Program running with 8 parallel MPI-processes     *
           *              working on a common directory               *
           ************************************************************
-------------------------------------------------------------------------------
                                 ORCA SCF
-------------------------------------------------------------------------------

------------
SCF SETTINGS
------------
Hamiltonian:
 Density Functional     Method          .... DFT(GTOs)
 Exchange Functional    Exchange        .... WB88
 Correlation Functional Correlation     .... LYP
 LDA part of GGA corr.  LDAOpt          .... VWN-3
 Gradients option       PostSCFGGA      .... off
 Hybrid DFT is turned on
   Fraction HF Exchange ScalHFX         ....  0.530000
   Scaling of DF-GGA-X  ScalDFX         ....  0.000000
   Scaling of DF-GGA-C  ScalDFC         ....  0.730000
   Scaling of DF-LDA-C  ScalLDAC        ....  0.730000
   Perturbative correction              ....  0.270000
   Density functional embedding theory  .... OFF
 Long-range corrected/Screened/Range-Separated Hybrid DFT is turned on
   Amount of maximum screened exact exchange              ....  0.470000
   Range separation parameter mu (erf(mu*r12)/r12)        ....  0.300000
 RI-approximation to the Coulomb term is turned on
   Number of AuxJ basis functions       .... 4571
   RIJ-COSX (HFX calculated with COS-X)).... on


General Settings:
 Integral files         IntName         .... Ru-arylbpy_3
 Hartree-Fock type      HFTyp           .... RHF
 Total Charge           Charge          ....    2
 Multiplicity           Mult            ....    1
 Number of Electrons    NEL             ....  548
 Basis Dimension        Dim             .... 1423
 Nuclear Repulsion      ENuc            ....  12382.0337118294 Eh

Convergence Acceleration:
 DIIS                   CNVDIIS         .... on
   Start iteration      DIISMaxIt       ....    12
   Startup error        DIISStart       ....  0.200000
   # of expansion vecs  DIISMaxEq       ....     5
   Bias factor          DIISBfac        ....   1.050
   Max. coefficient     DIISMaxC        ....  10.000
 Trust-Rad. Augm. Hess. CNVTRAH         .... auto
   Auto Start mean grad. ratio tolernc. ....  1.125000
   Auto Start start iteration           ....    20
[...]
   271a -> 290a  :     0.016445 
   272a -> 277a  :     0.095817 
   272a -> 291a  :     0.017158 

STATE 33:  E=   0.176524 au      4.803 eV    38742.6 cm**-1 <S**2> =   0.000000
   249a -> 274a  :     0.011047 
   256a -> 277a  :     0.010340 
   262a -> 274a  :     0.046493 
   262a -> 277a  :     0.028734 
   263a -> 276a  :     0.014008 
   263a -> 281a  :     0.011251 
   264a -> 275a  :     0.014487 
   264a -> 282a  :     0.011330 
   265a -> 281a  :     0.052572 
   266a -> 282a  :     0.052650 
   267a -> 277a  :     0.075024 
   269a -> 275a  :     0.011128 
   269a -> 276a  :     0.011661 
   269a -> 281a  :     0.010933 
   270a -> 275a  :     0.011806 
   270a -> 276a  :     0.010355 
   270a -> 282a  :     0.010720 
   271a -> 277a  :     0.295458 
   271a -> 291a  :     0.011553 
   272a -> 282a  :     0.016125 
   273a -> 281a  :     0.015536 

STATE 34:  E=   0.179761 au      4.892 eV    39453.0 cm**-1 <S**2> =   0.000000
   250a -> 277a  :     0.013131 
   253a -> 274a  :     0.053046 
   254a -> 276a  :     0.048413 
   255a -> 275a  :     0.047357 
   256a -> 278a  :     0.022883 
   257a -> 279a  :     0.017745 
   258a -> 280a  :     0.018741 
   262a -> 278a  :     0.030898 
   263a -> 275a  :     0.027751 
   264a -> 276a  :     0.028459 
   265a -> 280a  :     0.038984 
   266a -> 276a  :     0.010125 
   266a -> 279a  :     0.038673 
   266a -> 280a  :     0.010732 
   267a -> 278a  :     0.020538 
   268a -> 274a  :     0.065034 
   268a -> 277a  :     0.018002 
   271a -> 289a  :     0.017869 
   272a -> 276a  :     0.025278 
   272a -> 281a  :     0.023824 
   272a -> 293a  :     0.010807 
   273a -> 275a  :     0.025101 
   273a -> 282a  :     0.024168 
   273a -> 294a  :     0.010524 

STATE 35:  E=   0.186124 au      5.065 eV    40849.6 cm**-1 <S**2> =   0.000000
   249a -> 276a  :     0.011351 
   261a -> 280a  :     0.011642 
   262a -> 276a  :     0.025094 
   262a -> 281a  :     0.041833 
   263a -> 277a  :     0.014863 
   265a -> 277a  :     0.082323 
   265a -> 281a  :     0.027162 
   266a -> 277a  :     0.027748 
   266a -> 282a  :     0.029069 
   267a -> 281a  :     0.023450 
   269a -> 274a  :     0.029186 
   269a -> 277a  :     0.025009 
   271a -> 281a  :     0.112819 
   272a -> 281a  :     0.010345 
   272a -> 282a  :     0.010083 
   273a -> 277a  :     0.043142 

STATE 36:  E=   0.186177 au      5.066 eV    40861.1 cm**-1 <S**2> =   0.000000
   249a -> 275a  :     0.011283 
   256a -> 282a  :     0.014626 
   257a -> 277a  :     0.010220 
   260a -> 278a  :     0.012652 
   262a -> 275a  :     0.022501 
   262a -> 282a  :     0.037083 
   264a -> 275a  :     0.010463 
   264a -> 277a  :     0.015035 
   265a -> 277a  :     0.027305 
   265a -> 282a  :     0.027942 
   266a -> 277a  :     0.083732 
   266a -> 281a  :     0.028761 
   267a -> 282a  :     0.024867 
   270a -> 274a  :     0.029130 
   270a -> 277a  :     0.024781 
   271a -> 281a  :     0.010187 
   271a -> 282a  :     0.110213 
   272a -> 277a  :     0.042923 
   272a -> 281a  :     0.010622 
   273a -> 282a  :     0.010489 

STATE 37:  E=   0.181490 au      4.939 eV    39832.5 cm**-1 <S**2> =   0.000000
   262a -> 275a  :     0.016895 
   262a -> 282a  :     0.017660 
   263a -> 278a  :     0.069434 
   264a -> 277a  :     0.051988 
   264a -> 280a  :     0.011608 
   265a -> 277a  :     0.014178 
   265a -> 278a  :     0.019057 
   266a -> 277a  :     0.016087 
   266a -> 278a  :     0.025907 
   267a -> 275a  :     0.011221 
   269a -> 274a  :     0.021108 
   269a -> 276a  :     0.013427 
   270a -> 274a  :     0.019618 
   270a -> 275a  :     0.014447 
   272a -> 277a  :     0.039912 
   272a -> 278a  :     0.034798 
   272a -> 280a  :     0.016775 
   273a -> 277a  :     0.022000 
   273a -> 278a  :     0.231474 
   273a -> 283a  :     0.013180 
   273a -> 289a  :     0.029388 

STATE 38:  E=   0.181575 au      4.941 eV    39851.2 cm**-1 <S**2> =   0.000000
   262a -> 276a  :     0.017962 
   262a -> 281a  :     0.020497 
   263a -> 277a  :     0.056087 
   264a -> 278a  :     0.035456 
   264a -> 279a  :     0.030469 
   265a -> 277a  :     0.014653 
   265a -> 278a  :     0.022545 
   266a -> 277a  :     0.015626 
   266a -> 278a  :     0.016828 
   267a -> 276a  :     0.011223 
   269a -> 274a  :     0.017979 
   269a -> 275a  :     0.013660 
   270a -> 274a  :     0.022387 
   270a -> 276a  :     0.013722 
   272a -> 277a  :     0.015698 
   272a -> 278a  :     0.165930 
   272a -> 279a  :     0.055503 
   272a -> 283a  :     0.011762 
   272a -> 289a  :     0.030961 
   273a -> 277a  :     0.049490 
   273a -> 278a  :     0.043193 

STATE 39:  E=   0.175843 au      4.785 eV    38593.2 cm**-1 <S**2> =   0.000000
   253a -> 275a  :     0.012658 
   255a -> 274a  :     0.012209 
   262a -> 279a  :     0.024977 
   263a -> 277a  :     0.072535 
   264a -> 278a  :     0.060385 
   265a -> 277a  :     0.012388 
   265a -> 278a  :     0.019236 
   265a -> 280a  :     0.015718 
   266a -> 278a  :     0.025669 
   267a -> 279a  :     0.023619 
   271a -> 279a  :     0.034343 
   271a -> 281a  :     0.024177 
   272a -> 277a  :     0.028172 
   272a -> 278a  :     0.031911 
   272a -> 279a  :     0.012377 
   273a -> 277a  :     0.314791 
   273a -> 291a  :     0.010102 

STATE 40:  E=   0.175845 au      4.785 eV    38593.6 cm**-1 <S**2> =   0.000000
   253a -> 276a  :     0.013479 
   254a -> 274a  :     0.012386 
   262a -> 280a  :     0.032030 
   263a -> 278a  :     0.032577 
   263a -> 279a  :     0.018776 
   264a -> 277a  :     0.074482 
   265a -> 277a  :     0.010981 
   265a -> 279a  :     0.019851 
   265a -> 280a  :     0.016185 
   266a -> 277a  :     0.012494 
   266a -> 278a  :     0.010187 
   266a -> 279a  :     0.023732 
   267a -> 280a  :     0.024745 
   271a -> 280a  :     0.036341 
   271a -> 282a  :     0.023743 
   272a -> 277a  :     0.331624 
   272a -> 291a  :     0.010151 
   273a -> 277a  :     0.026505 
   273a -> 278a  :     0.038962 


-------------------------
TD-DFT-EXCITATION SPECTRA
-------------------------

Center of mass = ( -0.0004, -0.0006, -0.0011)
Calculating the Dipole integrals                  ... done
Transforming integrals                            ... done
Calculating the Linear Momentum integrals         ... done
Transforming integrals                            ... done
Calculating angular momentum integrals            ... done
Transforming integrals                            ... done

-----------------------------------------------------------------------------
         ABSORPTION SPECTRUM VIA TRANSITION ELECTRIC DIPOLE MOMENTS
-----------------------------------------------------------------------------
State   Energy    Wavelength  fosc         T2        TX        TY        TZ  
        (cm-1)      (nm)                 (au**2)    (au)      (au)      (au) 
-----------------------------------------------------------------------------
   1   31194.3    320.6   0.002265405   0.02391   0.00048  -0.15455  -0.00483
   2   31244.1    320.1   0.003144661   0.03313  -0.18164  -0.01182   0.00089
   3   32742.0    305.4   0.000056092   0.00056  -0.02012  -0.01064   0.00677
   4   26893.6    371.8   0.487465252   5.96721  -1.26718  -2.08797   0.04269
   5   26860.5    372.3   0.531270821   6.51145   2.46304  -0.66697   0.00392
   6   27071.8    369.4   0.453511642   5.51501  -0.86972   2.18133   0.02006
   7   27055.4    369.6   0.178353706   2.17022  -1.29663  -0.69855   0.03166
   8   27296.1    366.4   0.074419479   0.89756  -0.09962  -0.05987  -0.94024
   9   28255.2    353.9   0.034056547   0.39681   0.54427   0.31026  -0.06565
  10   28315.8    353.2   0.034694588   0.40337  -0.32583   0.54516   0.00234
  11   25884.8    386.3   0.011731218   0.14920  -0.09297  -0.08760  -0.36453
  12   29951.1    333.9   0.000030635   0.00034  -0.00297  -0.00396  -0.01767
  13   36122.1    276.8   0.444668439   4.05265   0.40668  -1.96640   0.14334
  14   36127.8    276.8   0.425047527   3.87321   1.91596   0.37413   0.24970
  15   36182.9    276.4   1.345191532  12.23930   0.16196  -0.01583  -3.49469
  16   35733.7    279.8   0.017922163   0.16512  -0.35518  -0.05895  -0.18838
  17   35714.9    280.0   0.014006694   0.12911   0.02543  -0.34774  -0.08685
  18   38241.4    261.5   0.000684327   0.00589  -0.00545  -0.03693   0.06707
  19   35552.4    281.3   0.125425380   1.16143   0.17024  -0.50665   0.93581
  20   35716.2    280.0   0.024122045   0.22234  -0.18776  -0.25017  -0.35286
  21   35292.1    283.3   0.566249129   5.28208  -0.16262   0.17304   2.28598
  22   36394.7    274.8   0.913946917   8.26719   2.55786   1.31227   0.04993
  23   36403.4    274.7   0.888262284   8.03295   1.31558  -2.51036   0.01745
  24   38968.9    256.6   0.003265225   0.02758   0.09083   0.13787  -0.01806
  25   39406.9    253.8   0.022026624   0.18401  -0.38603  -0.16783  -0.08264
  26   39482.1    253.3   0.012709525   0.10598  -0.16171   0.27913  -0.04372
  27   39971.5    250.2   0.033482774   0.27577  -0.01378  -0.44655   0.27599
  28   40021.6    249.9   0.023654662   0.19458   0.30047  -0.24444   0.21106
  29   40194.2    248.8   0.045330233   0.37128   0.34728   0.25620   0.43016
  30   40176.8    248.9   0.087487843   0.71688  -0.32261   0.07619   0.77910
  31   38990.1    256.5   0.001158785   0.00978   0.03154  -0.09373   0.00183
  32   38992.7    256.5   0.000472739   0.00399  -0.02942  -0.05575   0.00427
  33   38742.6    258.1   0.467681860   3.97408  -0.04080   0.01651  -1.99302
  34   39453.0    253.5   0.001917812   0.01600   0.02154  -0.03869  -0.11850
  35   40849.6    244.8   0.168823225   1.36057   1.04920   0.50793  -0.04194
  36   40861.1    244.7   0.187564705   1.51118  -0.48993   1.12669   0.04151
  37   39832.5    251.1   0.031225345   0.25807  -0.34728   0.37033   0.01816
  38   39851.2    250.9   0.029962568   0.24752   0.34833   0.35240  -0.04473
  39   38593.2    259.1   0.044099537   0.37618   0.53373   0.30198  -0.01124
  40   38593.6    259.1   0.053476193   0.45616   0.36055  -0.56871   0.05227

-----------------------------------------------------------------------------
         ABSORPTION SPECTRUM VIA TRANSITION VELOCITY DIPOLE MOMENTS
-----------------------------------------------------------------------------
State   Energy    Wavelength   fosc        P2         PX        PY        PZ  
        (cm-1)      (nm)                 (au**2)     (au)      (au)      (au) 
-----------------------------------------------------------------------------
   1   31194.3    320.6   0.002130617   0.00045  -0.00014   0.02130   0.00065
   2   31244.1    320.1   0.002904678   0.00062   0.02484   0.00174  -0.00011
   3   32742.0    305.4   0.000057480   0.00001   0.00284   0.00138  -0.00171
   4   26893.6    371.8   0.754219757   0.13863   0.19401   0.31772  -0.00661
   5   26860.5    372.3   0.824839423   0.15142  -0.37555   0.10192  -0.00081
   6   27071.8    369.4   0.704098254   0.13027   0.13407  -0.33510  -0.00304
   7   27055.4    369.6   0.279246072   0.05164   0.19978   0.10815  -0.00500
   8   27296.1    366.4   0.111391147   0.02078   0.01516   0.00925   0.14306
   9   28255.2    353.9   0.053236349   0.01028  -0.08760  -0.04997   0.01047
  10   28315.8    353.2   0.054272359   0.01050   0.05243  -0.08806  -0.00044
  11   25884.8    386.3   0.021466036   0.00380   0.01498   0.01409   0.05809
  12   29951.1    333.9   0.000059548   0.00001   0.00015   0.00072   0.00341
  13   36122.1    276.8   0.454442662   0.11219  -0.06779   0.32715  -0.02383
  14   36127.8    276.8   0.434851181   0.10737  -0.31900  -0.06232  -0.04154
  15   36182.9    276.4   1.382288989   0.34183  -0.02702   0.00263   0.58403
  16   35733.7    279.8   0.018228132   0.00445   0.05787   0.00986   0.03170
  17   35714.9    280.0   0.014091260   0.00344  -0.00437   0.05662   0.01464
  18   38241.4    261.5   0.000755022   0.00020   0.00109   0.00683  -0.01223
  19   35552.4    281.3   0.157285312   0.03822  -0.03320   0.09355  -0.16841
  20   35716.2    280.0   0.031303048   0.00764   0.03711   0.04765   0.06319
  21   35292.1    283.3   0.710592681   0.17140   0.02988  -0.03172  -0.41170
  22   36394.7    274.8   1.037438927   0.25805  -0.45138  -0.23286  -0.00938
  23   36403.4    274.7   1.003688995   0.24972  -0.23256   0.44230  -0.00243
  24   38968.9    256.6   0.003519662   0.00094  -0.01707  -0.02505   0.00429
  25   39406.9    253.8   0.025383565   0.00684   0.07510   0.03121   0.01491
  26   39482.1    253.3   0.015214066   0.00411   0.03095  -0.05530   0.00945
  27   39971.5    250.2   0.036840800   0.01006   0.00193   0.08567  -0.05216
  28   40021.6    249.9   0.025602275   0.00700  -0.05656   0.04620  -0.04086
  29   40194.2    248.8   0.048898409   0.01343  -0.06600  -0.04917  -0.08160
  30   40176.8    248.9   0.096876658   0.02660   0.06041  -0.01496  -0.15076
  31   38990.1    256.5   0.001972565   0.00053  -0.01309   0.01882  -0.00030
  32   38992.7    256.5   0.001352321   0.00036   0.00577   0.01806  -0.00095
  33   38742.6    258.1   0.619706827   0.16409   0.00914  -0.00336   0.40496
  34   39453.0    253.5   0.002579162   0.00070  -0.00456   0.00754   0.02486
  35   40849.6    244.8   0.196830315   0.05495  -0.21059  -0.10254   0.00946
  36   40861.1    244.7   0.220198401   0.06149   0.09814  -0.22756  -0.00881
  37   39832.5    251.1   0.042632823   0.01161   0.07342  -0.07871  -0.00463
  38   39851.2    250.9   0.040712325   0.01109  -0.07340  -0.07482   0.01016
  39   38593.2    259.1   0.078620596   0.02074  -0.12539  -0.07078   0.00213
  40   38593.6    259.1   0.094533877   0.02493  -0.08458   0.13280  -0.01202

-------------------------------------------------------------------
                             CD SPECTRUM
-------------------------------------------------------------------
State  Energy     Wavelength     R         MX        MY        MZ   
       (cm-1)       (nm)     (1e40*cgs)   (au)      (au)      (au)  
-------------------------------------------------------------------
   1   31194.3    320.6     59.11966   0.15093  -0.81098   0.00152
   2   31244.1    320.1     70.83606  -0.81729  -0.15293  -0.01247
   3   32742.0    305.4      2.92423  -0.01460  -0.00012   0.87201
   4   26893.6    371.8    288.56125   0.06847  -0.33531  -0.02988
   5   26860.5    372.3    411.03999   0.32999  -0.08852   0.00977
   6   27071.8    369.4    -258.67917   0.26892  -0.14432   0.00033
   7   27055.4    369.6    -271.78163   0.25823   0.34478  -0.02530
   8   27296.1    366.4    -218.56798   0.02040  -0.01121   0.49163
   9   28255.2    353.9    -43.66031  -0.12288  -0.07295   0.04715
  10   28315.8    353.2    -43.58354   0.07329  -0.12586   0.02074
  11   25884.8    386.3    -36.92138   0.02022   0.02068   0.20471
  12   29951.1    333.9     -0.24629  -0.00055  -0.01212   0.03237
  13   36122.1    276.8    -901.64160  -0.15403   0.94458   0.05280
  14   36127.8    276.8    -890.19411  -0.96111  -0.18777   0.09406
  15   36182.9    276.4    1505.23005  -0.09575   0.00622  -0.91807
  16   35733.7    279.8      4.24517   0.00203   0.01504  -0.05633
  17   35714.9    280.0     -1.10343   0.00324   0.01214  -0.02073
  18   38241.4    261.5     -0.42621  -0.00293   0.00106  -0.01314
  19   35552.4    281.3     24.27857   0.07570  -0.01927   0.03083
  20   35716.2    280.0      5.49685   0.02976  -0.03579  -0.02350
  21   35292.1    283.3     34.01197  -0.01217   0.04879   0.02700
  22   36394.7    274.8    103.01418   0.04799   0.07265   0.00833
  23   36403.4    274.7    158.61713   0.05017  -0.10750   0.03281
  24   38968.9    256.6      4.02460   0.01251   0.05524   0.01192
  25   39406.9    253.8    -10.59055   0.09225  -0.08099   0.00536
  26   39482.1    253.3      4.99846  -0.01951   0.01370  -0.08286
  27   39971.5    250.2    -42.24232  -0.10514   0.24961   0.07396
  28   40021.6    249.9    -41.19985  -0.21873   0.21176   0.14259
  29   40194.2    248.8    -42.25728  -0.23470  -0.27476   0.14475
  30   40176.8    248.9    118.56409   0.18730  -0.03795   0.40406
  31   38990.1    256.5      2.87847  -0.02909  -0.07476   0.00856
  32   38992.7    256.5     -2.03457  -0.01778   0.08146  -0.06976
  33   38742.6    258.1    -194.23465  -0.06799  -0.06260   0.20759
  34   39453.0    253.5     -5.28021   0.02733   0.02477   0.09140
  35   40849.6    244.8     42.16348   0.03474   0.11282   0.10303
  36   40861.1    244.7    126.47269  -0.16861   0.16639  -0.04361
  37   39832.5    251.1    -55.52309   0.12633  -0.19752  -0.04150
  38   39851.2    250.9    -86.62599  -0.32708  -0.18450   0.10712
  39   38593.2    259.1    -26.23237   0.03590  -0.24718   0.01418
  40   38593.6    259.1    -52.74462  -0.14727   0.09188  -0.12490

Total run time:   557969.952 sec

           *** ORCA-CIS/TD-DFT FINISHED WITHOUT ERROR ***

Maximum memory used throughout the entire CIS-calculation: 12488.0 MB

-----------------------
CIS/TD-DFT TOTAL ENERGY
-----------------------

    E(SCF)  =  -3190.721520086 Eh
    DE(CIS) =      0.142131556 Eh (Root  1)
    ----------------------------- ---------
    E(tot)  =  -3190.579388530 Eh


-------------------------   --------------------
FINAL SINGLE POINT ENERGY     -3190.579388530339
-------------------------   --------------------


                            ***************************************
                            *     ORCA property calculations      *
                            ***************************************


  WARNING: The energy has been calculated at the MP2 level but the densities
           used in the property calculations are still SCF densities
           MP2 response densities have not been calculated 
           use %mp2 Density relaxed end
           or  %mp2 Density unrelaxed end

                                    ---------------------
                                    Active property flags
                                    ---------------------
   (+) Dipole Moment


------------------------------------------------------------------------------
                       ORCA ELECTRIC PROPERTIES CALCULATION
------------------------------------------------------------------------------

Dipole Moment Calculation                       ... on
Quadrupole Moment Calculation                   ... off
Polarizability Calculation                      ... off
GBWName                                         ... Ru-arylbpy_3.gbw
Electron density                                ... Ru-arylbpy_3.scfp
The origin for moment calculation is the CENTER OF MASS  = (-0.000384, -0.000598 -0.001119)

-------------
DIPOLE MOMENT
-------------
                                X             Y             Z
Electronic contribution:     -0.25461      -0.75480      -1.95125
Nuclear contribution   :      0.28776       0.74907       1.88766
                        -----------------------------------------
Total Dipole Moment    :      0.03315      -0.00573      -0.06359
                        -----------------------------------------
Magnitude (a.u.)       :      0.07194
Magnitude (Debye)      :      0.18285



--------------------
Rotational spectrum 
--------------------
 
Rotational constants in cm-1:     0.000603     0.000600     0.000477 
Rotational constants in MHz :    18.071821    17.997093    14.311825 

 Dipole components along the rotational axes: 
x,y,z [a.u.] :     0.033327    -0.004416    -0.063598 
x,y,z [Debye]:     0.084710    -0.011224    -0.161654 

 

Timings for individual modules:

Sum of individual times         ...   589455.974 sec (=9824.266 min)
GTO integral calculation        ...       28.030 sec (=   0.467 min)   0.0 %
SCF iterations                  ...     8903.377 sec (= 148.390 min)   1.5 %
MP2 module                      ...    22549.935 sec (= 375.832 min)   3.8 %
CIS module                      ...   557974.632 sec (=9299.577 min)  94.7 %
                             ****ORCA TERMINATED NORMALLY****
TOTAL RUN TIME: 6 days 19 hours 44 minutes 50 seconds 407 msec
