
                                 *****************
                                 * O   R   C   A *
                                 *****************

                                            #,                                       
                                            ###                                      
                                            ####                                     
                                            #####                                    
                                            ######                                   
                                           ########,                                 
                                     ,,################,,,,,                         
                               ,,#################################,,                 
                          ,,##########################################,,             
                       ,#########################################, ''#####,          
                    ,#############################################,,   '####,        
                  ,##################################################,,,,####,       
                ,###########''''           ''''###############################       
              ,#####''   ,,,,##########,,,,          '''####'''          '####       
            ,##' ,,,,###########################,,,                        '##       
           ' ,,###''''                  '''############,,,                           
         ,,##''                                '''############,,,,        ,,,,,,###''
      ,#''                                            '''#######################'''  
     '                                                          ''''####''''         
             ,#######,   #######,   ,#######,      ##                                
            ,#'     '#,  ##    ##  ,#'     '#,    #''#        ######   ,####,        
            ##       ##  ##   ,#'  ##            #'  '#       #        #'  '#        
            ##       ##  #######   ##           ,######,      #####,   #    #        
            '#,     ,#'  ##    ##  '#,     ,#' ,#      #,         ##   #,  ,#        
             '#######'   ##     ##  '#######'  #'      '#     #####' # '####'        



                  #######################################################
                  #                        -***-                        #
                  #          Department of theory and spectroscopy      #
                  #    Directorship and core code : Frank Neese         #
                  #        Max Planck Institute fuer Kohlenforschung    #
                  #                Kaiser Wilhelm Platz 1               #
                  #                 D-45470 Muelheim/Ruhr               #
                  #                      Germany                        #
                  #                                                     #
                  #                  All rights reserved                #
                  #                        -***-                        #
                  #######################################################


                         Program Version 5.0.4 -  RELEASE  -


 With contributions from (in alphabetic order):
   Daniel Aravena         : Magnetic Suceptibility
   Michael Atanasov       : Ab Initio Ligand Field Theory (pilot matlab implementation)
   Alexander A. Auer      : GIAO ZORA, VPT2 properties, NMR spectrum
   Ute Becker             : Parallelization
   Giovanni Bistoni       : ED, misc. LED, open-shell LED, HFLD
   Martin Brehm           : Molecular dynamics
   Dmytro Bykov           : SCF Hessian
   Vijay G. Chilkuri      : MRCI spin determinant printing, contributions to CSF-ICE
   Dipayan Datta          : RHF DLPNO-CCSD density
   Achintya Kumar Dutta   : EOM-CC, STEOM-CC
   Dmitry Ganyushin       : Spin-Orbit,Spin-Spin,Magnetic field MRCI
   Miquel Garcia          : C-PCM and meta-GGA Hessian, CC/C-PCM, Gaussian charge scheme
   Yang Guo               : DLPNO-NEVPT2, F12-NEVPT2, CIM, IAO-localization
   Andreas Hansen         : Spin unrestricted coupled pair/coupled cluster methods
   Benjamin Helmich-Paris : MC-RPA, TRAH-SCF, COSX integrals
   Lee Huntington         : MR-EOM, pCC
   Robert Izsak           : Overlap fitted RIJCOSX, COSX-SCS-MP3, EOM
   Marcus Kettner         : VPT2
   Christian Kollmar      : KDIIS, OOCD, Brueckner-CCSD(T), CCSD density, CASPT2, CASPT2-K
   Simone Kossmann        : Meta GGA functionals, TD-DFT gradient, OOMP2, MP2 Hessian
   Martin Krupicka        : Initial AUTO-CI
   Lucas Lang             : DCDCAS
   Marvin Lechner         : AUTO-CI (C++ implementation), FIC-MRCC
   Dagmar Lenk            : GEPOL surface, SMD
   Dimitrios Liakos       : Extrapolation schemes; Compound Job, initial MDCI parallelization
   Dimitrios Manganas     : Further ROCIS development; embedding schemes
   Dimitrios Pantazis     : SARC Basis sets
   Anastasios Papadopoulos: AUTO-CI, single reference methods and gradients
   Taras Petrenko         : DFT Hessian,TD-DFT gradient, ASA, ECA, R-Raman, ABS, FL, XAS/XES, NRVS
   Peter Pinski           : DLPNO-MP2, DLPNO-MP2 Gradient
   Christoph Reimann      : Effective Core Potentials
   Marius Retegan         : Local ZFS, SOC
   Christoph Riplinger    : Optimizer, TS searches, QM/MM, DLPNO-CCSD(T), (RO)-DLPNO pert. Triples
   Tobias Risthaus        : Range-separated hybrids, TD-DFT gradient, RPA, STAB
   Michael Roemelt        : Original ROCIS implementation
   Masaaki Saitow         : Open-shell DLPNO-CCSD energy and density
   Barbara Sandhoefer     : DKH picture change effects
   Avijit Sen             : IP-ROCIS
   Kantharuban Sivalingam : CASSCF convergence, NEVPT2, FIC-MRCI
   Bernardo de Souza      : ESD, SOC TD-DFT
   Georgi Stoychev        : AutoAux, RI-MP2 NMR, DLPNO-MP2 response
   Willem Van den Heuvel  : Paramagnetic NMR
   Boris Wezisla          : Elementary symmetry handling
   Frank Wennmohs         : Technical directorship


 We gratefully acknowledge several colleagues who have allowed us to
 interface, adapt or use parts of their codes:
   Stefan Grimme, W. Hujo, H. Kruse, P. Pracht,  : VdW corrections, initial TS optimization,
                  C. Bannwarth, S. Ehlert          DFT functionals, gCP, sTDA/sTD-DF
   Ed Valeev, F. Pavosevic, A. Kumar             : LibInt (2-el integral package), F12 methods
   Garnet Chan, S. Sharma, J. Yang, R. Olivares  : DMRG
   Ulf Ekstrom                                   : XCFun DFT Library
   Mihaly Kallay                                 : mrcc  (arbitrary order and MRCC methods)
   Jiri Pittner, Ondrej Demel                    : Mk-CCSD
   Frank Weinhold                                : gennbo (NPA and NBO analysis)
   Christopher J. Cramer and Donald G. Truhlar   : smd solvation model
   Lars Goerigk                                  : TD-DFT with DH, B97 family of functionals
   V. Asgeirsson, H. Jonsson                     : NEB implementation
   FAccTs GmbH                                   : IRC, NEB, NEB-TS, DLPNO-Multilevel, CI-OPT
                                                   MM, QMMM, 2- and 3-layer-ONIOM, Crystal-QMMM,
                                                   LR-CPCM, SF, NACMEs, symmetry and pop. for TD-DFT,
                                                   nearIR, NL-DFT gradient (VV10), updates on ESD,
                                                   ML-optimized integration grids
   S Lehtola, MJT Oliveira, MAL Marques          : LibXC Library
   Liviu Ungur et al                             : ANISO software


 Your calculation uses the libint2 library for the computation of 2-el integrals
 For citations please refer to: http://libint.valeyev.net

 Your ORCA version has been built with support for libXC version: 5.1.0
 For citations please refer to: https://tddft.org/programs/libxc/

 This ORCA versions uses:
   CBLAS   interface :  Fast vector & matrix operations
   LAPACKE interface :  Fast linear algebra routines
   SCALAPACK package :  Parallel linear algebra routines
   Shared memory     :  Shared parallel matrices
   BLAS/LAPACK       :  OpenBLAS 0.3.15  USE64BITINT DYNAMIC_ARCH NO_AFFINITY Zen SINGLE_THREADED
        Core in use  :  Zen
   Copyright (c) 2011-2014, The OpenBLAS Project


Your calculation utilizes the SMD solvation module
Please cite in your paper:
A.V. Marenich, C.J. Cramer, D.G. Truhlar J. Phys. Chem. B, 113, (2009), 6378 

================================================================================

----- Orbital basis set information -----
Your calculation utilizes the basis: def2-SVP
   F. Weigend and R. Ahlrichs, Phys. Chem. Chem. Phys. 7, 3297 (2005).

----- AuxJ basis set information -----
Your calculation utilizes the auxiliary basis: def2/J
   F. Weigend, Phys. Chem. Chem. Phys. 8, 1057 (2006).

----- AuxC basis set information -----
Your calculation utilizes the auxiliary basis: def2-SVP/C
  H-La, Hf-Rn : A. Hellweg, C. Hattig, S. Hofener and W. Klopper, Theor. Chem. Acc. 117, 587 (2007).
        Ce-Lu : J. Chmela and M. E. Harding, Mol. Phys. (2018).

================================================================================
                                        WARNINGS
                       Please study these warnings very carefully!
================================================================================

INFO   : Checking CIS options ...
  ===> : (D) CORRECTION FOUND - SETTING MODE=3
  ===> : JK MODE FOUND - ACTIVATING RI-MP2 CODE
  ===> : MP2 AND CIS FOUND - CHECKING
WARNING: CIS(D) and MP2 runs must have the same orbital window
  ===> : adjusting orbital windows

WARNING: No MP2 level density has been requested!
         To caclulate MP2 level properties use
         %mp2 Density relaxed end
         or
         %mp2 Density unrelaxed end
         Otherwise for double-hybrid DFT only the energy is correct!

WARNING: The frozen-core approximation is turned on by default for 
         the MP2 part of double-hybrid DFT.

WARNING: CIS/ROCIS methods need fully converged wavefunctions
  ===> : Setting SCFConvForced true
         You can overwrite this default with %scf ConvForced false 


INFO   : the flag for use of the SHARK integral package has been found!

================================================================================
                                       INPUT FILE
================================================================================
NAME = FeC_4_SCS-PBE-QIDH_def2SVP.inp
|  1> %maxcore 6000
|  2> %pal
|  3>  nprocs 8
|  4> end
|  5> ! RI-SCS-PBE-QIDH def2-SVP def2/J def2-SVP/C RIJCOSX CPCM TIGHTSCF
|  6> 
|  7> %TDDFT 
|  8>     DCORR      4
|  9>     NROOTS    40
| 10>     doscs true
| 11>     TDA       FALSE
| 12> END
| 13> 
| 14> %CPCM
| 15>     SMD		TRUE
| 16>     SMDsolvent	"Acetonitrile"
| 17> END
| 18> 
| 19> * xyz 2 1
| 20> Fe                 -0.18443400    1.05691900   -0.14483500
| 21> N                  -0.45141900    2.99521900   -0.51342800
| 22> C                   0.48875800    3.80074400    0.05491000
| 23> C                  -1.38066200    3.55541600   -1.29519600
| 24> C                   0.49530100    5.18331200   -0.12762900
| 25> C                  -1.43442300    4.92992000   -1.52113800
| 26> H                  -2.10511800    2.88586000   -1.76305900
| 27> C                  -0.48754000    5.75915300   -0.92641900
| 28> H                   1.27031500    5.78119000    0.35371800
| 29> H                  -2.21816900    5.33257700   -2.16348500
| 30> H                  -0.51008600    6.83790200   -1.08791400
| 31> C                   1.46140400    3.09144700    0.84730000
| 32> H                   2.26188000    3.62966500    1.36849700
| 33> N                   1.33638300    1.80241100    0.91333600
| 34> C                   2.29050700    1.04157900    1.62714400
| 35> C                   3.66315200    1.17422700    1.37216200
| 36> C                   1.84596700    0.10026600    2.55565900
| 37> C                   4.57942500    0.34976700    2.02358400
| 38> H                   4.00823500    1.90821400    0.63949100
| 39> C                   2.78161900   -0.70471400    3.19014400
| 40> H                   0.79323300    0.01225100    2.81133700
| 41> C                   4.14862900   -0.60608500    2.93808700
| 42> H                   5.64353000    0.44781300    1.80260000
| 43> N                  -1.32476600    0.96618500    1.48234400
| 44> C                  -1.56743300   -0.30234200    1.92027300
| 45> C                  -1.88841100    1.98586900    2.13884100
| 46> C                  -2.40609600   -0.57017800    3.00180400
| 47> C                  -2.73129700    1.79150000    3.23227200
| 48> H                  -1.67211800    2.99266600    1.77372800
| 49> C                  -3.00388100    0.49664000    3.66607600
| 50> H                  -2.56573800   -1.60472800    3.30990800
| 51> H                  -3.16668900    2.65900500    3.72905200
| 52> H                  -3.66535200    0.32094800    4.51580900
| 53> C                  -0.83074800   -1.31854000    1.20957900
| 54> H                  -0.94168900   -2.37678500    1.47707100
| 55> N                   0.00242500   -0.90857900    0.30272500
| 56> C                   0.74312000   -1.84156600   -0.45301400
| 57> C                   0.16280000   -3.02118600   -0.94520500
| 58> C                   2.07480200   -1.54682700   -0.75558600
| 59> C                   0.90955800   -3.89002200   -1.73903400
| 60> H                  -0.88144700   -3.24938600   -0.71859400
| 61> C                   2.79383000   -2.43305900   -1.54491200
| 62> H                   2.55060700   -0.64546000   -0.37385200
| 63> C                   2.23523100   -3.60471600   -2.05217800
| 64> H                   0.44563600   -4.79854300   -2.12629700
| 65> N                   0.83205700    0.94835200   -1.87323100
| 66> C                   0.11165600    0.42715100   -2.90407500
| 67> C                   2.09989500    1.30326000   -2.10579400
| 68> C                   0.65934300    0.21892800   -4.16979000
| 69> C                   2.71247000    1.12976100   -3.34628600
| 70> H                   2.66106500    1.72529200   -1.26965400
| 71> C                   1.98705400    0.57062300   -4.39383600
| 72> H                   0.03699600   -0.21223300   -4.95508700
| 73> H                   3.75460800    1.42569400   -3.46974400
| 74> H                   2.44566000    0.41557400   -5.37159700
| 75> C                  -1.25175700    0.10325400   -2.56596800
| 76> H                  -1.91300000   -0.36390500   -3.30588600
| 77> N                  -1.64885600    0.39203400   -1.36688900
| 78> C                  -2.92569200   -0.03281600   -0.93609500
| 79> C                  -3.29648600   -1.36885900   -1.10259900
| 80> C                  -3.78790200    0.85562200   -0.27673900
| 81> C                  -4.52099200   -1.78828600   -0.59274400
| 82> H                  -2.63646600   -2.07682600   -1.60392200
| 83> C                  -5.01494900    0.41039800    0.20515400
| 84> H                  -3.49553800    1.89953200   -0.15310500
| 85> C                  -5.39321500   -0.92306900    0.06080400
| 86> H                  -5.68270600    1.11084100    0.70969600
| 87> N                  -4.88931900   -3.20264000   -0.74284500
| 88> O                  -4.06604900   -3.95513900   -1.24191100
| 89> O                  -5.99573500   -3.54547600   -0.35890600
| 90> N                   4.18572600   -2.09597100   -1.87387400
| 91> O                   4.81965600   -2.89403200   -2.54485300
| 92> O                   4.62763200   -1.03328300   -1.46161300
| 93> N                   2.29398000   -1.70752800    4.14661900
| 94> O                   1.08469700   -1.85819300    4.24595200
| 95> O                   3.12335800   -2.33819500    4.78123300
| 96> H                  -6.34131600   -1.29407200    0.44900700
| 97> H                   2.83073200   -4.26658500   -2.68016200
| 98> H                   4.84804100   -1.26766800    3.44830100
| 99> *
|100> 
|101> 
|102>                          ****END OF INPUT****
================================================================================

                       ****************************
                       * Single Point Calculation *
                       ****************************

---------------------------------
CARTESIAN COORDINATES (ANGSTROEM)
---------------------------------
  Fe    -0.184434    1.056919   -0.144835
  N     -0.451419    2.995219   -0.513428
  C      0.488758    3.800744    0.054910
  C     -1.380662    3.555416   -1.295196
  C      0.495301    5.183312   -0.127629
  C     -1.434423    4.929920   -1.521138
  H     -2.105118    2.885860   -1.763059
  C     -0.487540    5.759153   -0.926419
  H      1.270315    5.781190    0.353718
  H     -2.218169    5.332577   -2.163485
  H     -0.510086    6.837902   -1.087914
  C      1.461404    3.091447    0.847300
  H      2.261880    3.629665    1.368497
  N      1.336383    1.802411    0.913336
  C      2.290507    1.041579    1.627144
  C      3.663152    1.174227    1.372162
  C      1.845967    0.100266    2.555659
  C      4.579425    0.349767    2.023584
  H      4.008235    1.908214    0.639491
  C      2.781619   -0.704714    3.190144
  H      0.793233    0.012251    2.811337
  C      4.148629   -0.606085    2.938087
  H      5.643530    0.447813    1.802600
  N     -1.324766    0.966185    1.482344
  C     -1.567433   -0.302342    1.920273
  C     -1.888411    1.985869    2.138841
  C     -2.406096   -0.570178    3.001804
  C     -2.731297    1.791500    3.232272
  H     -1.672118    2.992666    1.773728
  C     -3.003881    0.496640    3.666076
  H     -2.565738   -1.604728    3.309908
  H     -3.166689    2.659005    3.729052
  H     -3.665352    0.320948    4.515809
  C     -0.830748   -1.318540    1.209579
  H     -0.941689   -2.376785    1.477071
  N      0.002425   -0.908579    0.302725
  C      0.743120   -1.841566   -0.453014
  C      0.162800   -3.021186   -0.945205
  C      2.074802   -1.546827   -0.755586
  C      0.909558   -3.890022   -1.739034
  H     -0.881447   -3.249386   -0.718594
  C      2.793830   -2.433059   -1.544912
  H      2.550607   -0.645460   -0.373852
  C      2.235231   -3.604716   -2.052178
  H      0.445636   -4.798543   -2.126297
  N      0.832057    0.948352   -1.873231
  C      0.111656    0.427151   -2.904075
  C      2.099895    1.303260   -2.105794
  C      0.659343    0.218928   -4.169790
  C      2.712470    1.129761   -3.346286
  H      2.661065    1.725292   -1.269654
  C      1.987054    0.570623   -4.393836
  H      0.036996   -0.212233   -4.955087
  H      3.754608    1.425694   -3.469744
  H      2.445660    0.415574   -5.371597
  C     -1.251757    0.103254   -2.565968
  H     -1.913000   -0.363905   -3.305886
  N     -1.648856    0.392034   -1.366889
  C     -2.925692   -0.032816   -0.936095
  C     -3.296486   -1.368859   -1.102599
  C     -3.787902    0.855622   -0.276739
  C     -4.520992   -1.788286   -0.592744
  H     -2.636466   -2.076826   -1.603922
  C     -5.014949    0.410398    0.205154
  H     -3.495538    1.899532   -0.153105
  C     -5.393215   -0.923069    0.060804
  H     -5.682706    1.110841    0.709696
  N     -4.889319   -3.202640   -0.742845
  O     -4.066049   -3.955139   -1.241911
  O     -5.995735   -3.545476   -0.358906
  N      4.185726   -2.095971   -1.873874
  O      4.819656   -2.894032   -2.544853
  O      4.627632   -1.033283   -1.461613
  N      2.293980   -1.707528    4.146619
  O      1.084697   -1.858193    4.245952
  O      3.123358   -2.338195    4.781233
  H     -6.341316   -1.294072    0.449007
  H      2.830732   -4.266585   -2.680162
  H      4.848041   -1.267668    3.448301

----------------------------
CARTESIAN COORDINATES (A.U.)
----------------------------
  NO LB      ZA    FRAG     MASS         X           Y           Z
   0 Fe   26.0000    0    55.850   -0.348530    1.997287   -0.273698
   1 N     7.0000    0    14.007   -0.853058    5.660144   -0.970238
   2 C     6.0000    0    12.011    0.923619    7.182365    0.103765
   3 C     6.0000    0    12.011   -2.609073    6.718763   -2.447566
   4 C     6.0000    0    12.011    0.935983    9.795040   -0.241184
   5 C     6.0000    0    12.011   -2.710667    9.316199   -2.874534
   6 H     1.0000    0     1.008   -3.978096    5.453485   -3.331699
   7 C     6.0000    0    12.011   -0.921317   10.883222   -1.750678
   8 H     1.0000    0     1.008    2.400547   10.924866    0.668430
   9 H     1.0000    0     1.008   -4.191732   10.077110   -4.088394
  10 H     1.0000    0     1.008   -0.963923   12.921762   -2.055860
  11 C     6.0000    0    12.011    2.761653    5.841988    1.601165
  12 H     1.0000    0     1.008    4.274334    6.859073    2.586085
  13 N     7.0000    0    14.007    2.525398    3.406063    1.725955
  14 C     6.0000    0    12.011    4.328431    1.968299    3.074857
  15 C     6.0000    0    12.011    6.922354    2.218967    2.593010
  16 C     6.0000    0    12.011    3.488372    0.189475    4.829496
  17 C     6.0000    0    12.011    8.653859    0.660964    3.824020
  18 H     1.0000    0     1.008    7.574466    3.606002    1.208463
  19 C     6.0000    0    12.011    5.256498   -1.331716    6.028498
  20 H     1.0000    0     1.008    1.498993    0.023151    5.312657
  21 C     6.0000    0    12.011    7.839773   -1.145335    5.552180
  22 H     1.0000    0     1.008   10.664726    0.846244    3.406420
  23 N     7.0000    0    14.007   -2.503445    1.825825    2.801224
  24 C     6.0000    0    12.011   -2.962019   -0.571344    3.628790
  25 C     6.0000    0    12.011   -3.568580    3.752749    4.041824
  26 C     6.0000    0    12.011   -4.546862   -1.077480    5.672587
  27 C     6.0000    0    12.011   -5.161403    3.385444    6.108109
  28 H     1.0000    0     1.008   -3.159845    5.655319    3.351860
  29 C     6.0000    0    12.011   -5.676512    0.938514    6.927880
  30 H     1.0000    0     1.008   -4.848542   -3.032496    6.254820
  31 H     1.0000    0     1.008   -5.984175    5.024791    7.046887
  32 H     1.0000    0     1.008   -6.926511    0.606504    8.533642
  33 C     6.0000    0    12.011   -1.569886   -2.491679    2.285773
  34 H     1.0000    0     1.008   -1.779534   -4.491473    2.791260
  35 N     7.0000    0    14.007    0.004583   -1.716965    0.572067
  36 C     6.0000    0    12.011    1.404293   -3.480055   -0.856072
  37 C     6.0000    0    12.011    0.307647   -5.709214   -1.786179
  38 C     6.0000    0    12.011    3.920808   -2.923079   -1.427851
  39 C     6.0000    0    12.011    1.718816   -7.351076   -3.286298
  40 H     1.0000    0     1.008   -1.665693   -6.140450   -1.357946
  41 C     6.0000    0    12.011    5.279574   -4.597815   -2.919461
  42 H     1.0000    0     1.008    4.819949   -1.219743   -0.706478
  43 C     6.0000    0    12.011    4.223974   -6.811926   -3.878054
  44 H     1.0000    0     1.008    0.842130   -9.067932   -4.018119
  45 N     7.0000    0    14.007    1.572360    1.792126   -3.539894
  46 C     6.0000    0    12.011    0.210999    0.807198   -5.487906
  47 C     6.0000    0    12.011    3.968226    2.462804   -3.979374
  48 C     6.0000    0    12.011    1.245978    0.413714   -7.879761
  49 C     6.0000    0    12.011    5.125825    2.134939   -6.323564
  50 H     1.0000    0     1.008    5.028684    3.260329   -2.399298
  51 C     6.0000    0    12.011    3.754988    1.078321   -8.303147
  52 H     1.0000    0     1.008    0.069912   -0.401062   -9.363757
  53 H     1.0000    0     1.008    7.095181    2.694171   -6.556866
  54 H     1.0000    0     1.008    4.621628    0.785321  -10.150847
  55 C     6.0000    0    12.011   -2.365478    0.195122   -4.848977
  56 H     1.0000    0     1.008   -3.615046   -0.687681   -6.247219
  57 N     7.0000    0    14.007   -3.115886    0.740837   -2.583046
  58 C     6.0000    0    12.011   -5.528757   -0.062013   -1.768963
  59 C     6.0000    0    12.011   -6.229456   -2.586769   -2.083610
  60 C     6.0000    0    12.011   -7.158097    1.616891   -0.522961
  61 C     6.0000    0    12.011   -8.543437   -3.379371   -1.120124
  62 H     1.0000    0     1.008   -4.982199   -3.924632   -3.030973
  63 C     6.0000    0    12.011   -9.476880    0.775540    0.387685
  64 H     1.0000    0     1.008   -6.605610    3.589595   -0.289327
  65 C     6.0000    0    12.011  -10.191699   -1.744348    0.114903
  66 H     1.0000    0     1.008  -10.738758    2.099185    1.341131
  67 N     7.0000    0    14.007   -9.239474   -6.052113   -1.403774
  68 O     8.0000    0    15.999   -7.683719   -7.474130   -2.346872
  69 O     8.0000    0    15.999  -11.330297   -6.699979   -0.678234
  70 N     7.0000    0    14.007    7.909876   -3.960811   -3.541109
  71 O     8.0000    0    15.999    9.107830   -5.468928   -4.809075
  72 O     8.0000    0    15.999    8.744957   -1.952622   -2.762048
  73 N     7.0000    0    14.007    4.334994   -3.226760    7.835974
  74 O     8.0000    0    15.999    2.049780   -3.511476    8.023686
  75 O     8.0000    0    15.999    5.902291   -4.418548    9.035221
  76 H     1.0000    0     1.008  -11.983351   -2.445442    0.848500
  77 H     1.0000    0     1.008    5.349308   -8.062677   -5.064772
  78 H     1.0000    0     1.008    9.161470   -2.395545    6.516345

--------------------------------
INTERNAL COORDINATES (ANGSTROEM)
--------------------------------
 Fe     0   0   0     0.000000000000     0.00000000     0.00000000
 N      1   0   0     1.991016996380     0.00000000     0.00000000
 C      2   1   0     1.362281688638   113.94562936     0.00000000
 C      2   1   3     1.337338565092   127.53122448   175.98470503
 C      3   2   1     1.394581504249   122.33323663   177.80794563
 C      4   2   1     1.393987546035   122.31552111   182.73968017
 H      4   2   1     1.091804707739   117.04385136     2.39713569
 C      5   3   2     1.391270912749   118.82699135   359.52156505
 H      5   3   2     1.090779417430   119.27297124   179.81096839
 H      6   4   2     1.090412821171   119.16392518   180.36261754
 H      8   5   3     1.091003374029   120.58610804   179.94087574
 C      3   2   1     1.441188532991   113.83719208   357.96600036
 H     12   3   2     1.096397170239   120.83073834   180.87232192
 N     12   3   2     1.296767061979   116.88231919     0.60059344
 C     14  12   3     1.413767944347   119.70911110   177.31580922
 C     15  14  12     1.402414207092   121.18839366   307.69155494
 C     15  14  12     1.394928700971   118.95750615   130.68883139
 C     16  15  14     1.394145302403   120.15812053   184.33740015
 H     16  15  14     1.092989472639   119.63140229     2.63592189
 C     17  15  14     1.387807148248   118.74290828   175.85326444
 H     17  15  14     1.086906966886   121.32476948   353.77021318
 C     18  16  15     1.391241882826   120.65935745   359.58275597
 H     18  16  15     1.091222432594   119.54703571   178.76396802
 N      1   2   3     1.989045305422    96.83320459    92.08752889
 C     24   1   2     1.363755781531   114.02557239   169.85201358
 C     24   1   2     1.337325486518   127.47704949   352.01541697
 C     25  24   1     1.394561240830   122.32329972   183.63488324
 C     26  24   1     1.394212131965   122.24255885   176.44968421
 H     26  24   1     1.092579683056   117.07332182   357.25889204
 C     27  25  24     1.391655431971   118.76886952   359.25960667
 H     27  25  24     1.091195374569   119.27786864   179.96312964
 H     28  26  24     1.090376763825   119.19620424   180.19045822
 H     30  27  25     1.091080993325   120.57838680   179.98945710
 C     25  24   1     1.442376208229   113.96815421     6.55406213
 H     34  25  24     1.097151929119   120.51556966   179.74208233
 N     34  25  24     1.297932758954   116.71736348     3.09150270
 C     36  34  25     1.410756981664   120.16091196   181.13940012
 C     37  36  34     1.403754475427   121.77064821    41.52010220
 C     37  36  34     1.397067586922   118.48693122   219.04580976
 C     38  37  36     1.393803424698   120.13447947   177.09641611
 H     38  37  36     1.092647968163   119.85974371   358.11190994
 C     39  37  36     1.387603674283   118.84119920   182.62902893
 H     39  37  36     1.088381235354   121.02857142     3.29248405
 C     40  38  37     1.391713900664   120.71088621     0.12592095
 H     40  38  37     1.091149238507   119.56225142   180.71260342
 N      1   2   3     2.008082040004    87.77458535   266.39235012
 C     46   1   2     1.361347654179   113.86506936   258.81324813
 C     46   1   2     1.336958649950   127.98091651    79.79268016
 C     47  46   1     1.394758878417   122.44734648   182.72652167
 C     48  46   1     1.394335123164   122.57091841   177.41510652
 H     48  46   1     1.091857535361   117.17982816   358.60879474
 C     50  48  46     1.391482906327   119.38872350     0.21332598
 H     49  47  46     1.090828572480   119.22752275   179.33779366
 H     50  48  46     1.090353075520   119.13485725   180.90366868
 H     52  50  48     1.091043642004   120.83954282   180.57179266
 C     47  46   1     1.441568804680   114.13662961     2.21953628
 H     56  47  46     1.096794640329   120.50907780   182.70656210
 N     56  47  46     1.295712912817   117.18266560     2.95688150
 C     58  56  47     1.412937070018   119.47801055   186.79973583
 C     59  58  56     1.396503730858   119.42315303    50.34128543
 C     59  58  56     1.402668349497   120.55414498   226.67109740
 C     60  59  58     1.391145597481   118.58472597   175.78753890
 H     60  59  58     1.090031386621   121.02667025   356.92680603
 C     61  59  58     1.391434372809   120.14576145   183.32964223
 H     61  59  58     1.091105019030   119.64011258     3.96011627
 C     62  60  59     1.391581261415   122.43712072     0.78577137
 H     64  61  59     1.091367232907   119.62461484   180.49655754
 N     62  60  59     1.469214867351   118.25932290   181.47710801
 O     68  62  60     1.221922710427   117.75271619     4.06199197
 O     68  62  60     1.220287688897   117.75003016   183.96658023
 N     42  39  37     1.469428049278   118.14290797   178.90925672
 O     71  42  39     1.220238264874   117.72123499   178.48917595
 O     71  42  39     1.222516188155   117.79537044   358.19342833
 N     20  17  15     1.469105897661   118.02159670   181.10936281
 O     74  20  17     1.222674266190   117.72973027     6.21583788
 O     74  20  17     1.219976909933   117.76761749   185.78678609
 H     66  62  60     1.089605571489   120.06675211   180.26368987
 H     44  40  38     1.089520958228   121.72133766   180.68442712
 H     22  18  16     1.089581358793   121.74961029   179.25450092

---------------------------
INTERNAL COORDINATES (A.U.)
---------------------------
 Fe     0   0   0     0.000000000000     0.00000000     0.00000000
 N      1   0   0     3.762476851141     0.00000000     0.00000000
 C      2   1   0     2.574339308781   113.94562936     0.00000000
 C      2   1   3     2.527203636355   127.53122448   175.98470503
 C      3   2   1     2.635377114463   122.33323663   177.80794563
 C      4   2   1     2.634254696103   122.31552111   182.73968017
 H      4   2   1     2.063211889353   117.04385136     2.39713569
 C      5   3   2     2.629121003187   118.82699135   359.52156505
 H      5   3   2     2.061274371461   119.27297124   179.81096839
 H      6   4   2     2.060581604930   119.16392518   180.36261754
 H      8   5   3     2.061697588098   120.58610804   179.94087574
 C      3   2   1     2.723451634701   113.83719208   357.96600036
 H     12   3   2     2.071890385759   120.83073834   180.87232192
 N     12   3   2     2.450534606630   116.88231919     0.60059344
 C     14  12   3     2.671634231733   119.70911110   177.31580922
 C     15  14  12     2.650178777724   121.18839366   307.69155494
 C     15  14  12     2.636033221183   118.95750615   130.68883139
 C     16  15  14     2.634552812435   120.15812053   184.33740015
 H     16  15  14     2.065450770546   119.63140229     2.63592189
 C     17  15  14     2.622575436887   118.74290828   175.85326444
 H     17  15  14     2.053956500465   121.32476948   353.77021318
 C     18  16  15     2.629066144582   120.65935745   359.58275597
 H     18  16  15     2.062111548795   119.54703571   178.76396802
 N      1   2   3     3.758750895209    96.83320459    92.08752889
 C     24   1   2     2.577124940645   114.02557239   169.85201358
 C     24   1   2     2.527178921432   127.47704949   352.01541697
 C     25  24   1     2.635338822151   122.32329972   183.63488324
 C     26  24   1     2.634679102004   122.24255885   176.44968421
 H     26  24   1     2.064676380463   117.07332182   357.25889204
 C     27  25  24     2.629847639208   118.76886952   359.25960667
 H     27  25  24     2.062060416536   119.27786864   179.96312964
 H     28  26  24     2.060513466420   119.19620424   180.19045822
 H     30  27  25     2.061844267310   120.57838680   179.98945710
 C     25  24   1     2.725696015637   113.96815421     6.55406213
 H     34  25  24     2.073316673339   120.51556966   179.74208233
 N     34  25  24     2.452737454668   116.71736348     3.09150270
 C     36  34  25     2.665944336863   120.16091196   181.13940012
 C     37  36  34     2.652711517823   121.77064821    41.52010220
 C     37  36  34     2.640075129861   118.48693122   219.04580976
 C     38  37  36     2.633906757202   120.13447947   177.09641611
 H     38  37  36     2.064805420613   119.85974371   358.11190994
 C     39  37  36     2.622190926818   118.84119920   182.62902893
 H     39  37  36     2.056742464117   121.02857142     3.29248405
 C     40  38  37     2.629958129026   120.71088621     0.12592095
 H     40  38  37     2.061973232015   119.56225142   180.71260342
 N      1   2   3     3.794725110053    87.77458535   266.39235012
 C     46   1   2     2.572574239454   113.86506936   258.81324813
 C     46   1   2     2.526485700783   127.98091651    79.79268016
 C     47  46   1     2.635712303063   122.44734648   182.72652167
 C     48  46   1     2.634911521688   122.57091841   177.41510652
 H     48  46   1     2.063311719090   117.17982816   358.60879474
 C     50  48  46     2.629521612991   119.38872350     0.21332598
 H     49  47  46     2.061367261044   119.22752275   179.33779366
 H     50  48  46     2.060468702012   119.13485725   180.90366868
 H     52  50  48     2.061773683544   120.83954282   180.57179266
 C     47  46   1     2.724170244050   114.13662961     2.21953628
 H     56  47  46     2.072641495374   120.50907780   182.70656210
 N     56  47  46     2.448542553410   117.18266560     2.95688150
 C     58  56  47     2.670064106800   119.47801055   186.79973583
 C     59  58  56     2.639009596321   119.42315303    50.34128543
 C     59  58  56     2.650659037268   120.55414498   226.67109740
 C     60  59  58     2.628884191649   118.58472597   175.78753890
 H     60  59  58     2.059860798091   121.02667025   356.92680603
 C     61  59  58     2.629429897933   120.14576145   183.32964223
 H     61  59  58     2.061889669313   119.64011258     3.96011627
 C     62  60  59     2.629707477171   122.43712072     0.78577137
 H     64  61  59     2.062385181729   119.62461484   180.49655754
 N     62  60  59     2.776413731179   118.25932290   181.47710801
 O     68  62  60     2.309099279526   117.75271619     4.06199197
 O     68  62  60     2.306009536611   117.75003016   183.96658023
 N     42  39  37     2.776816586637   118.14290797   178.90925672
 O     71  42  39     2.305916138743   117.72123499   178.48917595
 O     71  42  39     2.310220789898   117.79537044   358.19342833
 N     20  17  15     2.776207808308   118.02159670   181.10936281
 O     74  20  17     2.310519514092   117.72973027     6.21583788
 O     74  20  17     2.305422249480   117.76761749   185.78678609
 H     66  62  60     2.059056124108   120.06675211   180.26368987
 H     44  40  38     2.058896228218   121.72133766   180.68442712
 H     22  18  16     2.059010368744   121.74961029   179.25450092

---------------------
BASIS SET INFORMATION
---------------------
There are 5 groups of distinct atoms

 Group   1 Type Fe  : 14s9p5d1f contracted to 5s3p2d1f pattern {63311/531/41/1}
 Group   2 Type N   : 7s4p1d contracted to 3s2p1d pattern {511/31/1}
 Group   3 Type C   : 7s4p1d contracted to 3s2p1d pattern {511/31/1}
 Group   4 Type H   : 4s1p contracted to 2s1p pattern {31/1}
 Group   5 Type O   : 7s4p1d contracted to 3s2p1d pattern {511/31/1}

Atom   0Fe   basis set group =>   1
Atom   1N    basis set group =>   2
Atom   2C    basis set group =>   3
Atom   3C    basis set group =>   3
Atom   4C    basis set group =>   3
Atom   5C    basis set group =>   3
Atom   6H    basis set group =>   4
Atom   7C    basis set group =>   3
Atom   8H    basis set group =>   4
Atom   9H    basis set group =>   4
Atom  10H    basis set group =>   4
Atom  11C    basis set group =>   3
Atom  12H    basis set group =>   4
Atom  13N    basis set group =>   2
Atom  14C    basis set group =>   3
Atom  15C    basis set group =>   3
Atom  16C    basis set group =>   3
Atom  17C    basis set group =>   3
Atom  18H    basis set group =>   4
Atom  19C    basis set group =>   3
Atom  20H    basis set group =>   4
Atom  21C    basis set group =>   3
Atom  22H    basis set group =>   4
Atom  23N    basis set group =>   2
Atom  24C    basis set group =>   3
Atom  25C    basis set group =>   3
Atom  26C    basis set group =>   3
Atom  27C    basis set group =>   3
Atom  28H    basis set group =>   4
Atom  29C    basis set group =>   3
Atom  30H    basis set group =>   4
Atom  31H    basis set group =>   4
Atom  32H    basis set group =>   4
Atom  33C    basis set group =>   3
Atom  34H    basis set group =>   4
Atom  35N    basis set group =>   2
Atom  36C    basis set group =>   3
Atom  37C    basis set group =>   3
Atom  38C    basis set group =>   3
Atom  39C    basis set group =>   3
Atom  40H    basis set group =>   4
Atom  41C    basis set group =>   3
Atom  42H    basis set group =>   4
Atom  43C    basis set group =>   3
Atom  44H    basis set group =>   4
Atom  45N    basis set group =>   2
Atom  46C    basis set group =>   3
Atom  47C    basis set group =>   3
Atom  48C    basis set group =>   3
Atom  49C    basis set group =>   3
Atom  50H    basis set group =>   4
Atom  51C    basis set group =>   3
Atom  52H    basis set group =>   4
Atom  53H    basis set group =>   4
Atom  54H    basis set group =>   4
Atom  55C    basis set group =>   3
Atom  56H    basis set group =>   4
Atom  57N    basis set group =>   2
Atom  58C    basis set group =>   3
Atom  59C    basis set group =>   3
Atom  60C    basis set group =>   3
Atom  61C    basis set group =>   3
Atom  62H    basis set group =>   4
Atom  63C    basis set group =>   3
Atom  64H    basis set group =>   4
Atom  65C    basis set group =>   3
Atom  66H    basis set group =>   4
Atom  67N    basis set group =>   2
Atom  68O    basis set group =>   5
Atom  69O    basis set group =>   5
Atom  70N    basis set group =>   2
Atom  71O    basis set group =>   5
Atom  72O    basis set group =>   5
Atom  73N    basis set group =>   2
Atom  74O    basis set group =>   5
Atom  75O    basis set group =>   5
Atom  76H    basis set group =>   4
Atom  77H    basis set group =>   4
Atom  78H    basis set group =>   4
---------------------------------
AUXILIARY/J BASIS SET INFORMATION
---------------------------------
There are 5 groups of distinct atoms

 Group   1 Type Fe  : 19s5p5d3f3g contracted to 8s5p5d2f3g pattern {121111111/11111/11111/21/111}
 Group   2 Type N   : 12s5p4d2f1g contracted to 6s4p3d1f1g pattern {711111/2111/211/2/1}
 Group   3 Type C   : 12s5p4d2f1g contracted to 6s4p3d1f1g pattern {711111/2111/211/2/1}
 Group   4 Type H   : 5s2p1d contracted to 3s1p1d pattern {311/2/1}
 Group   5 Type O   : 12s5p4d2f1g contracted to 6s4p3d1f1g pattern {711111/2111/211/2/1}

Atom   0Fe   basis set group =>   1
Atom   1N    basis set group =>   2
Atom   2C    basis set group =>   3
Atom   3C    basis set group =>   3
Atom   4C    basis set group =>   3
Atom   5C    basis set group =>   3
Atom   6H    basis set group =>   4
Atom   7C    basis set group =>   3
Atom   8H    basis set group =>   4
Atom   9H    basis set group =>   4
Atom  10H    basis set group =>   4
Atom  11C    basis set group =>   3
Atom  12H    basis set group =>   4
Atom  13N    basis set group =>   2
Atom  14C    basis set group =>   3
Atom  15C    basis set group =>   3
Atom  16C    basis set group =>   3
Atom  17C    basis set group =>   3
Atom  18H    basis set group =>   4
Atom  19C    basis set group =>   3
Atom  20H    basis set group =>   4
Atom  21C    basis set group =>   3
Atom  22H    basis set group =>   4
Atom  23N    basis set group =>   2
Atom  24C    basis set group =>   3
Atom  25C    basis set group =>   3
Atom  26C    basis set group =>   3
Atom  27C    basis set group =>   3
Atom  28H    basis set group =>   4
Atom  29C    basis set group =>   3
Atom  30H    basis set group =>   4
Atom  31H    basis set group =>   4
Atom  32H    basis set group =>   4
Atom  33C    basis set group =>   3
Atom  34H    basis set group =>   4
Atom  35N    basis set group =>   2
Atom  36C    basis set group =>   3
Atom  37C    basis set group =>   3
Atom  38C    basis set group =>   3
Atom  39C    basis set group =>   3
Atom  40H    basis set group =>   4
Atom  41C    basis set group =>   3
Atom  42H    basis set group =>   4
Atom  43C    basis set group =>   3
Atom  44H    basis set group =>   4
Atom  45N    basis set group =>   2
Atom  46C    basis set group =>   3
Atom  47C    basis set group =>   3
Atom  48C    basis set group =>   3
Atom  49C    basis set group =>   3
Atom  50H    basis set group =>   4
Atom  51C    basis set group =>   3
Atom  52H    basis set group =>   4
Atom  53H    basis set group =>   4
Atom  54H    basis set group =>   4
Atom  55C    basis set group =>   3
Atom  56H    basis set group =>   4
Atom  57N    basis set group =>   2
Atom  58C    basis set group =>   3
Atom  59C    basis set group =>   3
Atom  60C    basis set group =>   3
Atom  61C    basis set group =>   3
Atom  62H    basis set group =>   4
Atom  63C    basis set group =>   3
Atom  64H    basis set group =>   4
Atom  65C    basis set group =>   3
Atom  66H    basis set group =>   4
Atom  67N    basis set group =>   2
Atom  68O    basis set group =>   5
Atom  69O    basis set group =>   5
Atom  70N    basis set group =>   2
Atom  71O    basis set group =>   5
Atom  72O    basis set group =>   5
Atom  73N    basis set group =>   2
Atom  74O    basis set group =>   5
Atom  75O    basis set group =>   5
Atom  76H    basis set group =>   4
Atom  77H    basis set group =>   4
Atom  78H    basis set group =>   4
---------------------------------
AUXILIARY/C BASIS SET INFORMATION
---------------------------------
There are 5 groups of distinct atoms

 Group   1 Type Fe  : 9s9p6d4f3g2h contracted to 9s9p6d4f3g2h pattern {111111111/111111111/111111/1111/111/11}
 Group   2 Type N   : 8s6p5d3f contracted to 6s5p4d1f pattern {311111/21111/2111/3}
 Group   3 Type C   : 8s6p5d3f contracted to 6s5p4d1f pattern {311111/21111/2111/3}
 Group   4 Type H   : 4s3p2d contracted to 3s2p1d pattern {211/21/2}
 Group   5 Type O   : 8s6p5d3f contracted to 6s5p4d1f pattern {311111/21111/2111/3}

Atom   0Fe   basis set group =>   1
Atom   1N    basis set group =>   2
Atom   2C    basis set group =>   3
Atom   3C    basis set group =>   3
Atom   4C    basis set group =>   3
Atom   5C    basis set group =>   3
Atom   6H    basis set group =>   4
Atom   7C    basis set group =>   3
Atom   8H    basis set group =>   4
Atom   9H    basis set group =>   4
Atom  10H    basis set group =>   4
Atom  11C    basis set group =>   3
Atom  12H    basis set group =>   4
Atom  13N    basis set group =>   2
Atom  14C    basis set group =>   3
Atom  15C    basis set group =>   3
Atom  16C    basis set group =>   3
Atom  17C    basis set group =>   3
Atom  18H    basis set group =>   4
Atom  19C    basis set group =>   3
Atom  20H    basis set group =>   4
Atom  21C    basis set group =>   3
Atom  22H    basis set group =>   4
Atom  23N    basis set group =>   2
Atom  24C    basis set group =>   3
Atom  25C    basis set group =>   3
Atom  26C    basis set group =>   3
Atom  27C    basis set group =>   3
Atom  28H    basis set group =>   4
Atom  29C    basis set group =>   3
Atom  30H    basis set group =>   4
Atom  31H    basis set group =>   4
Atom  32H    basis set group =>   4
Atom  33C    basis set group =>   3
Atom  34H    basis set group =>   4
Atom  35N    basis set group =>   2
Atom  36C    basis set group =>   3
Atom  37C    basis set group =>   3
Atom  38C    basis set group =>   3
Atom  39C    basis set group =>   3
Atom  40H    basis set group =>   4
Atom  41C    basis set group =>   3
Atom  42H    basis set group =>   4
Atom  43C    basis set group =>   3
Atom  44H    basis set group =>   4
Atom  45N    basis set group =>   2
Atom  46C    basis set group =>   3
Atom  47C    basis set group =>   3
Atom  48C    basis set group =>   3
Atom  49C    basis set group =>   3
Atom  50H    basis set group =>   4
Atom  51C    basis set group =>   3
Atom  52H    basis set group =>   4
Atom  53H    basis set group =>   4
Atom  54H    basis set group =>   4
Atom  55C    basis set group =>   3
Atom  56H    basis set group =>   4
Atom  57N    basis set group =>   2
Atom  58C    basis set group =>   3
Atom  59C    basis set group =>   3
Atom  60C    basis set group =>   3
Atom  61C    basis set group =>   3
Atom  62H    basis set group =>   4
Atom  63C    basis set group =>   3
Atom  64H    basis set group =>   4
Atom  65C    basis set group =>   3
Atom  66H    basis set group =>   4
Atom  67N    basis set group =>   2
Atom  68O    basis set group =>   5
Atom  69O    basis set group =>   5
Atom  70N    basis set group =>   2
Atom  71O    basis set group =>   5
Atom  72O    basis set group =>   5
Atom  73N    basis set group =>   2
Atom  74O    basis set group =>   5
Atom  75O    basis set group =>   5
Atom  76H    basis set group =>   4
Atom  77H    basis set group =>   4
Atom  78H    basis set group =>   4


           ************************************************************
           *        Program running with 8 parallel MPI-processes     *
           *              working on a common directory               *
           ************************************************************
------------------------------------------------------------------------------
                           ORCA GTO INTEGRAL CALCULATION
                           -- RI-GTO INTEGRALS CHOSEN --
------------------------------------------------------------------------------
------------------------------------------------------------------------------
                   ___                                                        
                  /   \      - P O W E R E D   B Y -                         
                 /     \                                                     
                 |  |  |   _    _      __       _____    __    __             
                 |  |  |  | |  | |    /  \     |  _  \  |  |  /  |          
                  \  \/   | |  | |   /    \    | | | |  |  | /  /          
                 / \  \   | |__| |  /  /\  \   | |_| |  |  |/  /          
                |  |  |   |  __  | /  /__\  \  |    /   |      \           
                |  |  |   | |  | | |   __   |  |    \   |  |\   \          
                \     /   | |  | | |  |  |  |  | |\  \  |  | \   \       
                 \___/    |_|  |_| |__|  |__|  |_| \__\ |__|  \__/        
                                                                              
                      - O R C A' S   B I G   F R I E N D -                    
                                      &                                       
                       - I N T E G R A L  F E E D E R -                       
                                                                              
 v1 FN, 2020, v2 2021                                                         
------------------------------------------------------------------------------


Reading SHARK input file FeC_4_SCS-PBE-QIDH_def2SVP.SHARKINP.tmp ... ok
----------------------
SHARK INTEGRAL PACKAGE
----------------------

Number of atoms                             ...     79
Number of basis functions                   ...    880
Number of shells                            ...    398
Maximum angular momentum                    ...      3
Integral batch strategy                     ... SHARK/LIBINT Hybrid
RI-J (if used) integral strategy            ... SPLIT-RIJ (Revised 2003 algorithm where possible)
Printlevel                                  ...      1
Contraction scheme used                     ... SEGMENTED contraction
Coulomb Range Separation                    ... NOT USED
Exchange Range Separation                   ... NOT USED
Finite Nucleus Model                        ... NOT USED
Auxiliary Coulomb fitting basis             ... AVAILABLE
   # of basis functions in Aux-J            ...   2885
   # of shells in Aux-J                     ...    923
   Maximum angular momentum in Aux-J        ...      4
Auxiliary J/K fitting basis                 ... NOT available
Auxiliary Correlation fitting basis         ... AVAILABLE
   # of basis functions in Aux-C            ...   2969
   # of shells in Aux-C                     ...   1011
   Maximum angular momentum in Aux-C        ...      5
Auxiliary 'external' fitting basis          ... NOT available
Integral threshold                          ...     2.500000e-11
Primitive cut-off                           ...     2.500000e-12
Primitive pair pre-selection threshold      ...     2.500000e-12

Calculating pre-screening integrals         ... done (  0.1 sec) Dimension = 398
Organizing shell pair data                  ... done (  0.2 sec)
Shell pair information
Total number of shell pairs                 ...     79401
Shell pairs after pre-screening             ...     48676
Total number of primitive shell pairs       ...    302260
Primitive shell pairs kept                  ...    106083
          la=0 lb=0:  14275 shell pairs
          la=1 lb=0:  18072 shell pairs
          la=1 lb=1:   5821 shell pairs
          la=2 lb=0:   5905 shell pairs
          la=2 lb=1:   3814 shell pairs
          la=2 lb=2:    537 shell pairs
          la=3 lb=0:    133 shell pairs
          la=3 lb=1:     89 shell pairs
          la=3 lb=2:     29 shell pairs
          la=3 lb=3:      1 shell pairs

Calculating one electron integrals          ... done (  0.1 sec)
Calculating RI/J V-Matrix + Cholesky decomp.... done (  0.4 sec)
Calculating RI/C V-Matrix + Cholesky decomp.... done (  0.4 sec)
Calculating Nuclear repulsion               ... done (  0.0 sec) ENN=   8281.107286528508 Eh

SHARK setup successfully completed in   1.8 seconds

Maximum memory used throughout the entire GTOINT-calculation: 87.7 MB


           ************************************************************
           *        Program running with 8 parallel MPI-processes     *
           *              working on a common directory               *
           ************************************************************
-------------------------------------------------------------------------------
                                 ORCA SCF
-------------------------------------------------------------------------------

------------
SCF SETTINGS
------------
Hamiltonian:
 Density Functional     Method          .... DFT(GTOs)
 Exchange Functional    Exchange        .... PBE
   PBE kappa parameter   XKappa         ....  0.804000
   PBE mue parameter    XMuePBE         ....  0.219520
 Correlation Functional Correlation     .... PBE
   PBE beta parameter  CBetaPBE         ....  0.066725
 LDA part of GGA corr.  LDAOpt          .... PW91-LDA
 Gradients option       PostSCFGGA      .... off
 Hybrid DFT is turned on
   Fraction HF Exchange ScalHFX         ....  0.690000
   Scaling of DF-GGA-X  ScalDFX         ....  0.310000
   Scaling of DF-GGA-C  ScalDFC         ....  0.670000
   Scaling of DF-LDA-C  ScalLDAC        ....  0.670000
   Perturbative correction              ....  0.330000
   Density functional embedding theory  .... OFF
 RI-approximation to the Coulomb term is turned on
   Number of AuxJ basis functions       .... 2885
   RIJ-COSX (HFX calculated with COS-X)).... on


General Settings:
 Integral files         IntName         .... FeC_4_SCS-PBE-QIDH_def2SVP
 Hartree-Fock type      HFTyp           .... RHF
 Total Charge           Charge          ....    2
 Multiplicity           Mult            ....    1
 Number of Electrons    NEL             ....  378
 Basis Dimension        Dim             ....  880
 Nuclear Repulsion      ENuc            ....   8281.1072865285 Eh

Convergence Acceleration:
 DIIS                   CNVDIIS         .... on
   Start iteration      DIISMaxIt       ....    12
   Startup error        DIISStart       ....  0.200000
   # of expansion vecs  DIISMaxEq       ....     5
   Bias factor          DIISBfac        ....   1.050
   Max. coefficient     DIISMaxC        ....  10.000
 Trust-Rad. Augm. Hess. CNVTRAH         .... auto
   Auto Start mean grad. ratio tolernc. ....  1.125000
   Auto Start start iteration           ....    20
   Auto Start num. interpolation iter.  ....    10
   Max. Number of Micro iterations      ....    16
   Max. Number of Macro iterations      .... Maxiter - #DIIS iter
   Number of Davidson start vectors     ....     2
   Converg. threshold I  (grad. norm)   ....   1.000e-05
   Converg. threshold II (energy diff.) ....   1.000e-08
   Grad. Scal. Fac. for Micro threshold ....   0.100
   Minimum threshold for Micro iter.    ....   0.010
   NR start threshold (gradient norm)   ....   0.001
   Initial trust radius                 ....   0.400
   Minimum AH scaling param. (alpha)    ....   1.000
   Maximum AH scaling param. (alpha)    .... 1000.000
   Orbital update algorithm             .... Taylor
   White noise on init. David. guess    .... on
   Maximum white noise                  ....   0.010
   Quad. conv. algorithm                .... NR
 SOSCF                  CNVSOSCF        .... off
 Level Shifting         CNVShift        .... on
   Level shift para.    LevelShift      ....    0.2500
   Turn off err/grad.   ShiftErr        ....    0.0010
 Zerner damping         CNVZerner       .... off
 Static damping         CNVDamp         .... on
   Fraction old density DampFac         ....    0.7000
   Max. Damping (<1)    DampMax         ....    0.9800
   Min. Damping (>=0)   DampMin         ....    0.0000
   Turn off err/grad.   DampErr         ....    0.1000
 Fernandez-Rico         CNVRico         .... off

SCF Procedure:
 Maximum # iterations   MaxIter         ....   125
 SCF integral mode      SCFMode         .... Direct
   Integral package                     .... SHARK and LIBINT hybrid scheme
 Reset frequency        DirectResetFreq ....    20
 Integral Threshold     Thresh          ....  2.500e-11 Eh
 Primitive CutOff       TCut            ....  2.500e-12 Eh

Convergence Tolerance:
 Convergence Check Mode ConvCheckMode   .... Total+1el-Energy
 Convergence forced     ConvForced      .... 1
 Energy Change          TolE            ....  1.000e-08 Eh
 1-El. energy change                    ....  1.000e-05 Eh
 DIIS Error             TolErr          ....  5.000e-07


Diagonalization of the overlap matrix:
Smallest eigenvalue                        ... 2.130e-04
Time for diagonalization                   ...    0.135 sec
Threshold for overlap eigenvalues          ... 1.000e-08
Number of eigenvalues below threshold      ... 0
Time for construction of square roots      ...    0.075 sec
Total time needed                          ...    0.213 sec

Time for model grid setup =    0.859 sec

------------------------------
INITIAL GUESS: MODEL POTENTIAL
------------------------------
Loading Hartree-Fock densities                     ... done
Calculating cut-offs                               ... done
Initializing the effective Hamiltonian             ... done
Setting up the integral package (SHARK)            ... done
Starting the Coulomb interaction                   ... done (   0.9 sec)
Reading the grid                                   ... done
Mapping shells                                     ... done
Starting the XC term evaluation                    ... done (   0.3 sec)
  promolecular density results
     # of electrons  =    379.977145176
     EX              =   -354.242595303
     EC              =     -4.896858849
     EX+EC           =   -359.139454152
Transforming the Hamiltonian                       ... done (   0.1 sec)
Diagonalizing the Hamiltonian                      ... done (   0.1 sec)
Back transforming the eigenvectors                 ... done (   0.0 sec)
Now organizing SCF variables                       ... done
                      ------------------
                      INITIAL GUESS DONE (   2.3 sec)
                      ------------------
-------------------
DFT GRID GENERATION
-------------------

General Integration Accuracy     IntAcc      ... 4.388
Radial Grid Type                 RadialGrid  ... OptM3 with GC (2021)
Angular Grid (max. ang.)         AngularGrid ... 4 (Lebedev-302)
Angular grid pruning method      GridPruning ... 4 (adaptive)
Weight generation scheme         WeightScheme... Becke
Basis function cutoff            BFCut       ... 1.0000e-11
Integration weight cutoff        WCut        ... 1.0000e-14
Angular grids for H and He will be reduced by one unit
Partially contracted basis set               ... off
Rotationally invariant grid construction     ... off

Total number of grid points                  ...   396920
Total number of batches                      ...     6241
Average number of points per batch           ...       63
Average number of grid points per atom       ...     5024
Time for grid setup =    3.380 sec

--------------------
COSX GRID GENERATION
--------------------

GRIDX 1
-------
General Integration Accuracy     IntAcc      ... 3.816
Radial Grid Type                 RadialGrid  ... OptM3 with GC (2021)
Angular Grid (max. ang.)         AngularGrid ... 1 (Lebedev-50)
Angular grid pruning method      GridPruning ... 4 (adaptive)
Weight generation scheme         WeightScheme... Becke
Basis function cutoff            BFCut       ... 1.0000e-11
Integration weight cutoff        WCut        ... 1.0000e-14
Angular grids for H and He will be reduced by one unit
Partially contracted basis set               ... on
Rotationally invariant grid construction     ... off

Total number of grid points                  ...    49926
Total number of batches                      ...      811
Average number of points per batch           ...       61
Average number of grid points per atom       ...      632
UseSFitting                                  ... on

GRIDX 2
-------
General Integration Accuracy     IntAcc      ... 4.020
Radial Grid Type                 RadialGrid  ... OptM3 with GC (2021)
Angular Grid (max. ang.)         AngularGrid ... 2 (Lebedev-110)
Angular grid pruning method      GridPruning ... 4 (adaptive)
Weight generation scheme         WeightScheme... Becke
Basis function cutoff            BFCut       ... 1.0000e-11
Integration weight cutoff        WCut        ... 1.0000e-14
Angular grids for H and He will be reduced by one unit
Partially contracted basis set               ... on
Rotationally invariant grid construction     ... off

Total number of grid points                  ...   108867
Total number of batches                      ...     1738
Average number of points per batch           ...       62
Average number of grid points per atom       ...     1378
UseSFitting                                  ... on

GRIDX 3
-------
General Integration Accuracy     IntAcc      ... 4.338
Radial Grid Type                 RadialGrid  ... OptM3 with GC (2021)
Angular Grid (max. ang.)         AngularGrid ... 3 (Lebedev-194)
Angular grid pruning method      GridPruning ... 4 (adaptive)
Weight generation scheme         WeightScheme... Becke
Basis function cutoff            BFCut       ... 1.0000e-11
Integration weight cutoff        WCut        ... 1.0000e-14
Angular grids for H and He will be reduced by one unit
Partially contracted basis set               ... on
Rotationally invariant grid construction     ... off

Total number of grid points                  ...   237051
Total number of batches                      ...     3744
Average number of points per batch           ...       63
Average number of grid points per atom       ...     3001
UseSFitting                                  ... on

Time for X-Grid setup             =    3.540 sec


--------------------
CPCM SOLVATION MODEL
--------------------
CPCM parameters:
  Epsilon                                         ...      35.6880
  Refrac                                          ...       1.3442
  Rsolv                                           ...       1.3000
  Surface type                                    ... GAUSSIAN VDW
  Epsilon function type                           ...         CPCM
Solvent:                                     ... ACETONITRILE
SMD-CDS solvent descriptors:
  Soln                                       ...    1.3442
  Soln25                                     ...    1.3416
  Sola                                       ...    0.0700
  Solb                                       ...    0.3200
  Solg                                       ...   41.2500
  Solc                                       ...    0.0000
  Solh                                       ...    0.0000
Radii:
 Radius for Fe used is    3.6661 Bohr (=   1.9400 Ang.)
 Radius for N  used is    3.5716 Bohr (=   1.8900 Ang.)
 Radius for C  used is    3.4960 Bohr (=   1.8500 Ang.)
 Radius for H  used is    2.2677 Bohr (=   1.2000 Ang.)
 Radius for O  used is    4.0969 Bohr (=   2.1680 Ang.)
Calculating surface                               ...        done! (  0.0s)
GEPOL surface points                              ...         4221
GEPOL Volume                                      ...    4965.6842
GEPOL Surface-area                                ...    2354.1384
Calculating surface distance matrix               ...        done! (  0.1s)
Performing Cholesky decomposition & store         ...        done! (  0.6s)
Overall time for CPCM initialization              ...                 0.7s
--------------
SCF ITERATIONS
--------------
ITER       Energy         Delta-E        Max-DP      RMS-DP      [F,P]     Damp
               ***  Starting incremental Fock matrix formation  ***
  0  -3585.6066282239   0.000000000000 0.08254859  0.00118748  0.2222090 0.7000
  1  -3586.0001303307  -0.393502106785 0.05482410  0.00088567  0.1059239 0.7000
                               ***Turning on DIIS***
  2  -3586.2037054532  -0.203575122551 0.18853497  0.00203336  0.0691274 0.0000
  3  -3586.6244140375  -0.420708584319 0.03853229  0.00036637  0.0508331 0.0000
  4  -3586.6685826271  -0.044168589578 0.03613708  0.00021816  0.0289684 0.0000
  5  -3586.6782236594  -0.009641032243 0.03066714  0.00014041  0.0207750 0.0000
  6  -3586.6823595735  -0.004135914154 0.01461220  0.00008278  0.0125965 0.0000
  7  -3586.6837661850  -0.001406611515 0.00799478  0.00004780  0.0057444 0.0000
  8  -3586.6842733872  -0.000507202161 0.00245596  0.00002205  0.0013884 0.0000
  9  -3586.6843978435  -0.000124456290 0.00175620  0.00001953  0.0007380 0.0000
               *** Restarting incremental Fock matrix formation ***
                                   *** Resetting DIIS ***
 10  -3586.6843132726   0.000084570835 0.00079011  0.00001656  0.0004730 0.0000
 11  -3586.6843175843  -0.000004311672 0.00031105  0.00000245  0.0003544 0.0000
 12  -3586.6843186231  -0.000001038815 0.00045991  0.00000192  0.0002925 0.0000
 13  -3586.6843192477  -0.000000624558 0.00037406  0.00000116  0.0002088 0.0000
 14  -3586.6843195491  -0.000000301453 0.00035597  0.00000093  0.0001381 0.0000
 15  -3586.6843196881  -0.000000138999 0.00024999  0.00000070  0.0000774 0.0000
 16  -3586.6843197859  -0.000000097751 0.00012078  0.00000032  0.0000377 0.0000
 17  -3586.6843197886  -0.000000002723 0.00007982  0.00000024  0.0000311 0.0000
 18  -3586.6843197458   0.000000042804 0.00003141  0.00000011  0.0000245 0.0000
 19  -3586.6843196805   0.000000065275 0.00003103  0.00000010  0.0000209 0.0000
 20  -3586.6843197102  -0.000000029633 0.00002982  0.00000009  0.0000171 0.0000
 21  -3586.6843196742   0.000000035986 0.00002378  0.00000007  0.0000132 0.0000
 22  -3586.6843196848  -0.000000010613 0.00003113  0.00000010  0.0000102 0.0000
 23  -3586.6843197429  -0.000000058158 0.00002755  0.00000009  0.0000061 0.0000
 24  -3586.6843196843   0.000000058687 0.00001817  0.00000005  0.0000039 0.0000
 25  -3586.6843197442  -0.000000059907 0.00000810  0.00000003  0.0000027 0.0000
 26  -3586.6843197067   0.000000037449 0.00000332  0.00000001  0.0000018 0.0000
 27  -3586.6843196800   0.000000026744 0.00000220  0.00000001  0.0000012 0.0000
                            ***DIIS convergence achieved***

               *****************************************************
               *                     SUCCESS                       *
               *           SCF CONVERGED AFTER  28 CYCLES          *
               *****************************************************

Old exchange energy                            =   -247.210931662 Eh
New exchange energy                            =   -247.211210864 Eh
Exchange energy change after final integration =     -0.000279202 Eh
Total energy after final integration           =  -3586.684598921 Eh
Final COS-X integration done in                =    42.193 sec

SMD CDS free energy correction energy :                -6.61805     Kcal/mol
Total Energy after SMD CDS correction =             -3586.695145451 Eh

----------------
TOTAL SCF ENERGY
----------------

Total Energy       :        -3586.69514545 Eh          -97598.93674 eV

Components:
Nuclear Repulsion  :         8281.10728653 Eh          225340.38535 eV
Electronic Energy  :       -11867.80243198 Eh         -322939.32209 eV
One Electron Energy:       -21330.61562591 Eh         -580435.55995 eV
Two Electron Energy:         9462.81319394 Eh          257496.23786 eV
Max COSX asymmetry :            0.00002884 Eh               0.00078 eV
CPCM Dielectric    :           -0.28660993 Eh              -7.79905 eV
SMD CDS (Gcds)     :           -0.01054653 Eh              -0.28699 eV

Virial components:
Potential Energy   :        -7153.70419062 Eh         -194662.18746 eV
Kinetic Energy     :         3567.00904517 Eh           97063.25072 eV
Virial Ratio       :            2.00551894


DFT components:
N(Alpha)           :      189.000168315606 electrons
N(Beta)            :      189.000168315606 electrons
N(Total)           :      378.000336631213 electrons
E(X)               :     -110.833707052052 Eh       
E(C)               :       -8.819099855096 Eh       
E(XC)              :     -119.652806907148 Eh       
DFET-embed. en.    :        0.000000000000 Eh       
CPCM Solvation Model Properties:
Surface-charge          :           -2.03544568
Charge-correction       :            0.00628930 Eh               0.17114 eV
Free-energy (cav+disp)  :           -0.01054653 Eh              -0.28699 eV

---------------
SCF CONVERGENCE
---------------

  Last Energy change         ...   -3.9406e-08  Tolerance :   1.0000e-08
  Last MAX-Density change    ...    0.0000e+00  Tolerance :   1.0000e-07
  Last RMS-Density change    ...    0.0000e+00  Tolerance :   5.0000e-09
  Last DIIS Error            ...    8.5989e-07  Tolerance :   5.0000e-07

             **** THE GBW FILE WAS UPDATED (FeC_4_SCS-PBE-QIDH_def2SVP.gbw) ****
             **** DENSITY FeC_4_SCS-PBE-QIDH_def2SVP.scfp WAS UPDATED ****
             **** ENERGY FILE WAS UPDATED (FeC_4_SCS-PBE-QIDH_def2SVP.en.tmp) ****
             **** THE GBW FILE WAS UPDATED (FeC_4_SCS-PBE-QIDH_def2SVP.gbw) ****
             **** DENSITY FeC_4_SCS-PBE-QIDH_def2SVP.scfp WAS UPDATED ****
----------------
ORBITAL ENERGIES
----------------

  NO   OCC          E(Eh)            E(eV) 
   0   2.0000    -259.268368     -7055.0510 
   1   2.0000     -31.175201      -848.3203 
   2   2.0000     -26.808090      -729.4852 
   3   2.0000     -26.807768      -729.4765 
   4   2.0000     -26.805901      -729.4257 
   5   2.0000     -20.055671      -545.7425 
   6   2.0000     -20.055009      -545.7245 
   7   2.0000     -20.054783      -545.7184 
   8   2.0000     -20.054650      -545.7148 
   9   2.0000     -20.054553      -545.7121 
  10   2.0000     -20.054279      -545.7047 
  11   2.0000     -15.365009      -418.1032 
  12   2.0000     -15.364401      -418.0866 
  13   2.0000     -15.364268      -418.0830 
  14   2.0000     -15.149424      -412.2368 
  15   2.0000     -15.148891      -412.2223 
  16   2.0000     -15.148083      -412.2003 
  17   2.0000     -15.147968      -412.1972 
  18   2.0000     -15.147963      -412.1970 
  19   2.0000     -15.147440      -412.1828 
  20   2.0000     -10.926259      -297.3186 
  21   2.0000     -10.925770      -297.3053 
  22   2.0000     -10.925603      -297.3008 
  23   2.0000     -10.908910      -296.8465 
  24   2.0000     -10.907648      -296.8122 
  25   2.0000     -10.907179      -296.7994 
  26   2.0000     -10.905610      -296.7567 
  27   2.0000     -10.905134      -296.7438 
  28   2.0000     -10.904709      -296.7322 
  29   2.0000     -10.901222      -296.6373 
  30   2.0000     -10.900786      -296.6255 
  31   2.0000     -10.900766      -296.6249 
  32   2.0000     -10.900280      -296.6117 
  33   2.0000     -10.899613      -296.5936 
  34   2.0000     -10.899596      -296.5931 
  35   2.0000     -10.873559      -295.8846 
  36   2.0000     -10.872786      -295.8635 
  37   2.0000     -10.872520      -295.8563 
  38   2.0000     -10.870822      -295.8101 
  39   2.0000     -10.870306      -295.7961 
  40   2.0000     -10.869921      -295.7856 
  41   2.0000     -10.869574      -295.7761 
  42   2.0000     -10.869149      -295.7646 
  43   2.0000     -10.868838      -295.7561 
  44   2.0000     -10.867461      -295.7187 
  45   2.0000     -10.866564      -295.6942 
  46   2.0000     -10.866470      -295.6917 
  47   2.0000     -10.865377      -295.6619 
  48   2.0000     -10.864876      -295.6483 
  49   2.0000     -10.864196      -295.6298 
  50   2.0000     -10.863001      -295.5973 
  51   2.0000     -10.862522      -295.5843 
  52   2.0000     -10.862124      -295.5734 
  53   2.0000     -10.857586      -295.4499 
  54   2.0000     -10.857416      -295.4453 
  55   2.0000     -10.856780      -295.4280 
  56   2.0000      -3.848649      -104.7271 
  57   2.0000      -2.504298       -68.1454 
  58   2.0000      -2.502777       -68.1040 
  59   2.0000      -2.498372       -67.9842 
  60   2.0000      -1.483520       -40.3686 
  61   2.0000      -1.482967       -40.3536 
  62   2.0000      -1.482725       -40.3470 
  63   2.0000      -1.286214       -34.9997 
  64   2.0000      -1.285562       -34.9819 
  65   2.0000      -1.285409       -34.9778 
  66   2.0000      -1.213364       -33.0173 
  67   2.0000      -1.203156       -32.7395 
  68   2.0000      -1.201308       -32.6893 
  69   2.0000      -1.169258       -31.8171 
  70   2.0000      -1.168573       -31.7985 
  71   2.0000      -1.167252       -31.7625 
  72   2.0000      -1.088095       -29.6086 
  73   2.0000      -1.087498       -29.5923 
  74   2.0000      -1.087016       -29.5792 
  75   2.0000      -1.015039       -27.6206 
  76   2.0000      -1.013699       -27.5841 
  77   2.0000      -1.012321       -27.5467 
  78   2.0000      -1.004662       -27.3383 
  79   2.0000      -1.003756       -27.3136 
  80   2.0000      -1.003135       -27.2967 
  81   2.0000      -0.982122       -26.7249 
  82   2.0000      -0.982005       -26.7217 
  83   2.0000      -0.981586       -26.7103 
  84   2.0000      -0.946212       -25.7477 
  85   2.0000      -0.945330       -25.7237 
  86   2.0000      -0.942605       -25.6496 
  87   2.0000      -0.878891       -23.9158 
  88   2.0000      -0.875333       -23.8190 
  89   2.0000      -0.874428       -23.7944 
  90   2.0000      -0.858825       -23.3698 
  91   2.0000      -0.856558       -23.3081 
  92   2.0000      -0.855273       -23.2731 
  93   2.0000      -0.815873       -22.2010 
  94   2.0000      -0.815445       -22.1894 
  95   2.0000      -0.815076       -22.1793 
  96   2.0000      -0.792032       -21.5523 
  97   2.0000      -0.787292       -21.4233 
  98   2.0000      -0.786175       -21.3929 
  99   2.0000      -0.771147       -20.9840 
 100   2.0000      -0.769508       -20.9394 
 101   2.0000      -0.758343       -20.6356 
 102   2.0000      -0.740174       -20.1411 
 103   2.0000      -0.737921       -20.0798 
 104   2.0000      -0.737149       -20.0588 
 105   2.0000      -0.715388       -19.4667 
 106   2.0000      -0.712902       -19.3990 
 107   2.0000      -0.712235       -19.3809 
 108   2.0000      -0.700445       -19.0601 
 109   2.0000      -0.685737       -18.6598 
 110   2.0000      -0.683548       -18.6003 
 111   2.0000      -0.682463       -18.5708 
 112   2.0000      -0.682271       -18.5656 
 113   2.0000      -0.681817       -18.5532 
 114   2.0000      -0.673649       -18.3309 
 115   2.0000      -0.671663       -18.2769 
 116   2.0000      -0.670787       -18.2530 
 117   2.0000      -0.655539       -17.8381 
 118   2.0000      -0.650734       -17.7074 
 119   2.0000      -0.650298       -17.6955 
 120   2.0000      -0.643566       -17.5123 
 121   2.0000      -0.643151       -17.5010 
 122   2.0000      -0.639067       -17.3899 
 123   2.0000      -0.628635       -17.1060 
 124   2.0000      -0.626729       -17.0542 
 125   2.0000      -0.625492       -17.0205 
 126   2.0000      -0.617861       -16.8129 
 127   2.0000      -0.615883       -16.7590 
 128   2.0000      -0.614650       -16.7255 
 129   2.0000      -0.611423       -16.6377 
 130   2.0000      -0.610331       -16.6079 
 131   2.0000      -0.604625       -16.4527 
 132   2.0000      -0.589268       -16.0348 
 133   2.0000      -0.584573       -15.9070 
 134   2.0000      -0.579701       -15.7745 
 135   2.0000      -0.579062       -15.7571 
 136   2.0000      -0.575962       -15.6727 
 137   2.0000      -0.572554       -15.5800 
 138   2.0000      -0.570743       -15.5307 
 139   2.0000      -0.565497       -15.3880 
 140   2.0000      -0.558709       -15.2033 
 141   2.0000      -0.553377       -15.0582 
 142   2.0000      -0.548669       -14.9301 
 143   2.0000      -0.540331       -14.7031 
 144   2.0000      -0.525442       -14.2980 
 145   2.0000      -0.521108       -14.1801 
 146   2.0000      -0.515505       -14.0276 
 147   2.0000      -0.510140       -13.8816 
 148   2.0000      -0.508563       -13.8387 
 149   2.0000      -0.507726       -13.8159 
 150   2.0000      -0.504999       -13.7417 
 151   2.0000      -0.504128       -13.7180 
 152   2.0000      -0.500452       -13.6180 
 153   2.0000      -0.499488       -13.5918 
 154   2.0000      -0.497641       -13.5415 
 155   2.0000      -0.489481       -13.3195 
 156   2.0000      -0.483328       -13.1520 
 157   2.0000      -0.478539       -13.0217 
 158   2.0000      -0.473515       -12.8850 
 159   2.0000      -0.464255       -12.6330 
 160   2.0000      -0.458502       -12.4765 
 161   2.0000      -0.456453       -12.4207 
 162   2.0000      -0.452925       -12.3247 
 163   2.0000      -0.448779       -12.2119 
 164   2.0000      -0.448071       -12.1926 
 165   2.0000      -0.447089       -12.1659 
 166   2.0000      -0.445449       -12.1213 
 167   2.0000      -0.441970       -12.0266 
 168   2.0000      -0.441032       -12.0011 
 169   2.0000      -0.440787       -11.9944 
 170   2.0000      -0.440168       -11.9776 
 171   2.0000      -0.426446       -11.6042 
 172   2.0000      -0.425809       -11.5869 
 173   2.0000      -0.425329       -11.5738 
 174   2.0000      -0.424265       -11.5448 
 175   2.0000      -0.410396       -11.1674 
 176   2.0000      -0.395095       -10.7511 
 177   2.0000      -0.387408       -10.5419 
 178   2.0000      -0.376749       -10.2519 
 179   2.0000      -0.371695       -10.1143 
 180   2.0000      -0.369483       -10.0541 
 181   2.0000      -0.365144        -9.9361 
 182   2.0000      -0.361228        -9.8295 
 183   2.0000      -0.357412        -9.7257 
 184   2.0000      -0.355711        -9.6794 
 185   2.0000      -0.353955        -9.6316 
 186   2.0000      -0.329919        -8.9776 
 187   2.0000      -0.327575        -8.9138 
 188   2.0000      -0.323320        -8.7980 
 189   0.0000      -0.047225        -1.2851 
 190   0.0000      -0.042886        -1.1670 
 191   0.0000      -0.041609        -1.1322 
 192   0.0000      -0.031527        -0.8579 
 193   0.0000      -0.028962        -0.7881 
 194   0.0000      -0.027948        -0.7605 
 195   0.0000       0.016406         0.4464 
 196   0.0000       0.021564         0.5868 
 197   0.0000       0.023801         0.6476 
 198   0.0000       0.041055         1.1172 
 199   0.0000       0.042373         1.1530 
 200   0.0000       0.048838         1.3289 
 201   0.0000       0.071407         1.9431 
 202   0.0000       0.074655         2.0315 
 203   0.0000       0.075759         2.0615 
 204   0.0000       0.096249         2.6191 
 205   0.0000       0.099331         2.7029 
 206   0.0000       0.103768         2.8237 
 207   0.0000       0.113448         3.0871 
 208   0.0000       0.136660         3.7187 
 209   0.0000       0.138498         3.7687 
 210   0.0000       0.144833         3.9411 
 211   0.0000       0.146024         3.9735 
 212   0.0000       0.149593         4.0706 
 213   0.0000       0.153851         4.1865 
 214   0.0000       0.156307         4.2533 
 215   0.0000       0.165704         4.5090 
 216   0.0000       0.167457         4.5567 
 217   0.0000       0.180129         4.9016 
 218   0.0000       0.181718         4.9448 
 219   0.0000       0.189927         5.1682 
 220   0.0000       0.190416         5.1815 
 221   0.0000       0.192849         5.2477 
 222   0.0000       0.197171         5.3653 
 223   0.0000       0.200373         5.4524 
 224   0.0000       0.205144         5.5823 
 225   0.0000       0.206094         5.6081 
 226   0.0000       0.208193         5.6652 
 227   0.0000       0.210558         5.7296 
 228   0.0000       0.215871         5.8741 
 229   0.0000       0.218435         5.9439 
 230   0.0000       0.220509         6.0003 
 231   0.0000       0.224262         6.1025 
 232   0.0000       0.225811         6.1446 
 233   0.0000       0.228360         6.2140 
 234   0.0000       0.233595         6.3564 
 235   0.0000       0.234817         6.3897 
 236   0.0000       0.239498         6.5171 
 237   0.0000       0.243286         6.6202 
 238   0.0000       0.247560         6.7364 
 239   0.0000       0.251774         6.8511 
 240   0.0000       0.255925         6.9641 
 241   0.0000       0.257591         7.0094 
 242   0.0000       0.263479         7.1696 
 243   0.0000       0.269801         7.3417 
 244   0.0000       0.273379         7.4390 
 245   0.0000       0.277714         7.5570 
 246   0.0000       0.284741         7.7482 
 247   0.0000       0.300072         8.1654 
 248   0.0000       0.303486         8.2583 
 249   0.0000       0.309833         8.4310 
 250   0.0000       0.315904         8.5962 
 251   0.0000       0.318923         8.6783 
 252   0.0000       0.320552         8.7227 
 253   0.0000       0.326633         8.8881 
 254   0.0000       0.329338         8.9617 
 255   0.0000       0.333420         9.0728 
 256   0.0000       0.338520         9.2116 
 257   0.0000       0.342274         9.3137 
[...]
   175a -> 189a  :     0.021126 
   176a -> 189a  :     0.020832 
   178a -> 191a  :     0.019054 
   179a -> 189a  :     0.033877 
   183a -> 189a  :     0.066495 
   183a -> 193a  :     0.017181 
   184a -> 189a  :     0.033588 
   185a -> 189a  :     0.318617 
   185a -> 190a  :     0.010993 
   185a -> 191a  :     0.024777 
   185a -> 192a  :     0.023076 
   185a -> 193a  :     0.052230 
   185a -> 194a  :     0.010193 
   187a -> 190a  :     0.019911 
   188a -> 193a  :     0.043597 
   188a -> 195a  :     0.017041 

STATE 37:  E=   0.184117 au      5.010 eV    40408.9 cm**-1 <S**2> =   0.000000
   175a -> 189a  :     0.023150 
   176a -> 189a  :     0.040574 
   176a -> 190a  :     0.018018 
   181a -> 189a  :     0.019062 
   182a -> 189a  :     0.023411 
   183a -> 189a  :     0.053282 
   185a -> 189a  :     0.011198 
   186a -> 192a  :     0.057699 
   187a -> 190a  :     0.014338 
   188a -> 191a  :     0.024703 
   188a -> 192a  :     0.450123 
   188a -> 193a  :     0.040850 
   188a -> 195a  :     0.015748 

STATE 38:  E=   0.169612 au      4.615 eV    37225.5 cm**-1 <S**2> =   0.000000
   175a -> 189a  :     0.010415 
   176a -> 189a  :     0.163372 
   176a -> 190a  :     0.028154 
   177a -> 191a  :     0.011953 
   178a -> 189a  :     0.012257 
   179a -> 189a  :     0.013933 
   180a -> 191a  :     0.018458 
   181a -> 191a  :     0.010474 
   182a -> 189a  :     0.044861 
   183a -> 189a  :     0.039271 
   185a -> 191a  :     0.023184 
   186a -> 189a  :     0.016205 
   186a -> 192a  :     0.019017 
   187a -> 192a  :     0.014362 
   188a -> 192a  :     0.182068 
   188a -> 193a  :     0.131349 

STATE 39:  E=   0.160077 au      4.356 eV    35132.9 cm**-1 <S**2> =   0.000000
   175a -> 189a  :     0.034293 
   175a -> 190a  :     0.011726 
   176a -> 189a  :     0.101705 
   176a -> 190a  :     0.019742 
   178a -> 189a  :     0.037119 
   178a -> 190a  :     0.060794 
   180a -> 190a  :     0.023469 
   181a -> 189a  :     0.031021 
   182a -> 189a  :     0.041165 
   183a -> 189a  :     0.058044 
   184a -> 189a  :     0.123215 
   184a -> 190a  :     0.051231 
   186a -> 190a  :     0.018270 
   187a -> 190a  :     0.014375 
   187a -> 194a  :     0.010037 
   187a -> 196a  :     0.013421 
   188a -> 192a  :     0.014746 
   188a -> 197a  :     0.010660 

STATE 40:  E=   0.175459 au      4.774 eV    38508.8 cm**-1 <S**2> =   0.000000
   176a -> 190a  :     0.027584 
   178a -> 190a  :     0.032149 
   179a -> 189a  :     0.022580 
   180a -> 190a  :     0.062071 
   181a -> 189a  :     0.010322 
   182a -> 189a  :     0.043767 
   182a -> 190a  :     0.067489 
   183a -> 191a  :     0.011243 
   184a -> 189a  :     0.304275 
   184a -> 190a  :     0.075409 
   184a -> 193a  :     0.012411 
   186a -> 193a  :     0.013165 
   188a -> 192a  :     0.010295 
   188a -> 194a  :     0.040907 


-------------------------
TD-DFT-EXCITATION SPECTRA
-------------------------

Center of mass = (  0.0089, -0.0329,  0.0103)
Calculating the Dipole integrals                  ... done
Transforming integrals                            ... done
Calculating the Linear Momentum integrals         ... done
Transforming integrals                            ... done
Calculating angular momentum integrals            ... done
Transforming integrals                            ... done

-----------------------------------------------------------------------------
         ABSORPTION SPECTRUM VIA TRANSITION ELECTRIC DIPOLE MOMENTS
-----------------------------------------------------------------------------
State   Energy    Wavelength  fosc         T2        TX        TY        TZ  
        (cm-1)      (nm)                 (au**2)    (au)      (au)      (au) 
-----------------------------------------------------------------------------
   1   14275.1    700.5   0.000021146   0.00049   0.02054  -0.00362  -0.00724
   2   14722.3    679.2   0.000015008   0.00034   0.01763   0.00137  -0.00479
   3   15358.1    651.1   0.000040712   0.00087  -0.02746   0.00334   0.01037
   4   24947.0    400.8   0.000058414   0.00077  -0.00493  -0.00395   0.02704
   5   25477.3    392.5   0.000071397   0.00092   0.02142   0.02101   0.00473
   6   26532.6    376.9   0.000012263   0.00015  -0.00390   0.00674  -0.00956
   7   32256.5    310.0   0.360102442   3.67523   0.89123  -0.94845  -1.40762
   8   33320.0    300.1   0.434333778   4.29135   1.20023   0.78106  -1.49691
   9   31896.1    313.5   0.011199812   0.11560   0.23278   0.05702  -0.24116
  10   31884.5    313.6   0.006030106   0.06226  -0.05242  -0.11463   0.21535
  11   31917.5    313.3   0.016311299   0.16824  -0.27207  -0.19411   0.23779
  12   33267.7    300.6   0.670727636   6.63742   2.01260  -1.58542   0.27073
  13   34987.3    285.8   0.023894116   0.22483  -0.10197  -0.45597  -0.08075
  14   34940.1    286.2   0.049235852   0.46391  -0.65652   0.11594   0.13948
  15   35782.8    279.5   0.012967948   0.11931  -0.34310  -0.03123   0.02481
  16   36459.1    274.3   0.000020320   0.00018   0.00485  -0.00298   0.01229
  17   36068.6    277.2   0.030221628   0.27584   0.44483  -0.22596  -0.16405
  18   35941.6    278.2   0.009725634   0.08908   0.24544   0.16960  -0.00869
  19   36709.1    272.4   0.010276931   0.09216  -0.07979  -0.27483  -0.10134
  20   32366.2    309.0   0.055128148   0.56073  -0.10987  -0.49057   0.55498
  21   37159.0    269.1   0.080032831   0.70905  -0.76867   0.32562   0.11033
  22   35890.1    278.6   0.105657255   0.96917  -0.71156  -0.67397   0.09284
  23   35846.1    279.0   0.026044654   0.23919   0.06627  -0.43696   0.20944
  24   36838.1    271.5   0.074730086   0.66784   0.04225   0.71745   0.38901
  25   33776.7    296.1   0.050830001   0.49543   0.20155  -0.04138   0.67312
  26   32893.3    304.0   0.083732279   0.83803  -0.73186  -0.54990  -0.00441
  27   37512.7    266.6   0.138389099   1.21450  -1.03374  -0.11391   0.36457
  28   35395.8    282.5   0.154898912   1.44070   0.25234   0.94663  -0.69347
  29   36460.8    274.3   0.044560339   0.40234  -0.40843   0.30760   0.37538
  30   29632.0    337.5   0.022652152   0.25167   0.10964   0.45778  -0.17346
  31   30321.2    329.8   0.014021407   0.15224  -0.12740  -0.29527   0.22095
  32   36320.4    275.3   0.005215206   0.04727   0.20621   0.02283  -0.06503
  33   29077.9    343.9   0.001016422   0.01151   0.05150   0.04018   0.08509
  34   34117.1    293.1   0.001720383   0.01660   0.11636   0.03645  -0.04163
  35   27922.5    358.1   0.055532756   0.65474   0.30478   0.20199   0.72184
  36   39547.0    252.9   0.051999825   0.43288  -0.13864   0.58665   0.26362
  37   40408.9    247.5   0.008280431   0.06746  -0.20514   0.04257   0.15351
  38   37225.5    268.6   0.025240521   0.22322   0.33348  -0.32804   0.06633
  39   35132.9    284.6   0.098996681   0.92765   0.34050   0.50771  -0.74427
  40   38508.8    259.7   0.049303890   0.42150  -0.21608   0.47754  -0.38309

-----------------------------------------------------------------------------
         ABSORPTION SPECTRUM VIA TRANSITION VELOCITY DIPOLE MOMENTS
-----------------------------------------------------------------------------
State   Energy    Wavelength   fosc        P2         PX        PY        PZ  
        (cm-1)      (nm)                 (au**2)     (au)      (au)      (au) 
-----------------------------------------------------------------------------
   1   14275.1    700.5   0.000062609   0.00001  -0.00106  -0.00142   0.00172
   2   14722.3    679.2   0.000011527   0.00000  -0.00053   0.00047   0.00081
   3   15358.1    651.1   0.000031247   0.00000  -0.00049   0.00112   0.00133
   4   24947.0    400.8   0.000182372   0.00003   0.00046   0.00124  -0.00542
   5   25477.3    392.5   0.000174525   0.00003  -0.00359  -0.00390  -0.00152
   6   26532.6    376.9   0.000013974   0.00000   0.00031  -0.00020   0.00155
   7   32256.5    310.0   0.394552806   0.08698  -0.13504   0.14395   0.21914
   8   33320.0    300.1   0.478675062   0.10901  -0.18926  -0.12453   0.24017
   9   31896.1    313.5   0.013613682   0.00297  -0.03664  -0.00886   0.03933
  10   31884.5    313.6   0.007308435   0.00159   0.00831   0.01852  -0.03436
  11   31917.5    313.3   0.019910260   0.00434   0.04340   0.03099  -0.03872
  12   33267.7    300.6   0.743416940   0.16903  -0.32043   0.25462  -0.03899
  13   34987.3    285.8   0.031997896   0.00765   0.01524   0.08414   0.01842
  14   34940.1    286.2   0.062590344   0.01495   0.11808  -0.01872  -0.02558
  15   35782.8    279.5   0.016756004   0.00410   0.06356   0.00183  -0.00741
  16   36459.1    274.3   0.000025608   0.00001   0.00067  -0.00139   0.00200
  17   36068.6    277.2   0.037633022   0.00928  -0.08325   0.04097   0.02585
  18   35941.6    278.2   0.011984173   0.00294  -0.04370  -0.03209   0.00216
  19   36709.1    272.4   0.011743843   0.00295   0.01601   0.04837   0.01873
  20   32366.2    309.0   0.090838541   0.02009   0.02221   0.09445  -0.10334
  21   37159.0    269.1   0.099286086   0.02522   0.14552  -0.05981  -0.02147
  22   35890.1    278.6   0.133739572   0.03281   0.13230   0.12251  -0.01713
  23   35846.1    279.0   0.036342231   0.00890  -0.01228   0.08495  -0.03920
  24   36838.1    271.5   0.094981860   0.02391  -0.00760  -0.13636  -0.07255
  25   33776.7    296.1   0.083932155   0.01938  -0.04290   0.00430  -0.13235
  26   32893.3    304.0   0.134455015   0.03023   0.13911   0.10420   0.00422
  27   37512.7    266.6   0.172702721   0.04428   0.19702   0.02041  -0.07101
  28   35395.8    282.5   0.224556901   0.05432  -0.04780  -0.18373   0.13521
  29   36460.8    274.3   0.061189128   0.01525   0.08084  -0.06061  -0.07099
  30   29632.0    337.5   0.047365347   0.00959  -0.02079  -0.09073   0.03046
  31   30321.2    329.8   0.030154534   0.00625   0.02639   0.05991  -0.04431
  32   36320.4    275.3   0.007141711   0.00177  -0.03904  -0.00451   0.01512
  33   29077.9    343.9   0.002263662   0.00045  -0.00865  -0.00619  -0.01835
  34   34117.1    293.1   0.002738604   0.00064  -0.02287  -0.00636   0.00867
  35   27922.5    358.1   0.152696234   0.02914  -0.06344  -0.04381  -0.15230
  36   39547.0    252.9   0.080725307   0.02182   0.02642  -0.13234  -0.06005
  37   40408.9    247.5   0.010883767   0.00301   0.04307  -0.00639  -0.03332
  38   37225.5    268.6   0.039372951   0.01002  -0.07261   0.06701  -0.01595
  39   35132.9    284.6   0.183206853   0.04399  -0.07459  -0.10913   0.16284
  40   38508.8    259.7   0.077639753   0.02043   0.05175  -0.10541   0.08152

-------------------------------------------------------------------
                             CD SPECTRUM
-------------------------------------------------------------------
State  Energy     Wavelength     R         MX        MY        MZ   
       (cm-1)       (nm)     (1e40*cgs)   (au)      (au)      (au)  
-------------------------------------------------------------------
   1   14275.1    700.5      8.20297   0.52191   0.36525  -1.10486
   2   14722.3    679.2     -1.44443  -0.21913  -1.15914  -0.49803
   3   15358.1    651.1     13.68895  -1.15888   0.39170  -0.39441
   4   24947.0    400.8     -0.99868  -0.02816   0.04808  -0.07647
   5   25477.3    392.5     -0.66523  -0.02006  -0.04077  -0.02641
   6   26532.6    376.9     -0.15294  -0.00834  -0.02205   0.02178
   7   32256.5    310.0    -342.85728   0.41774   0.32193   0.56422
   8   33320.0    300.1    -773.27211  -0.23208  -1.00327   0.38615
   9   31896.1    313.5     37.19599   0.08795   0.18617  -0.19824
  10   31884.5    313.6    -44.32545   0.40480   0.27025  -0.19421
  11   31917.5    313.3     -8.82130   0.09709  -0.09678  -0.04660
  12   33267.7    300.6    1086.21939   0.79887  -0.60974  -0.99920
  13   34987.3    285.8     -3.77624  -0.27322   0.05603   0.12783
  14   34940.1    286.2    -94.68513   0.21832   0.01396  -0.42392
  15   35782.8    279.5    -61.06365   0.41684  -0.27351   0.19966
  16   36459.1    274.3     -0.86142   0.00950  -0.49274  -0.27189
  17   36068.6    277.2    111.12633   0.50331  -0.08530   0.04541
  18   35941.6    278.2     29.16791   0.10431   0.21399   0.00326
  19   36709.1    272.4    -47.16091   0.05133   0.09556   0.68756
  20   32366.2    309.0    -44.84581   0.30044  -0.01938  -0.12905
  21   37159.0    269.1    225.83429  -0.50089   0.25532   0.09842
  22   35890.1    278.6     35.74242  -0.25525   0.15889   0.01373
  23   35846.1    279.0     -5.93620   0.02863  -0.06521  -0.20522
  24   36838.1    271.5    -220.55157   0.05290  -0.13937  -0.95129
  25   33776.7    296.1    -129.93658   0.38694  -0.46953  -0.55418
  26   32893.3    304.0      6.24317   0.04737  -0.08757   0.05573
  27   37512.7    266.6    -117.38793  -0.00239   0.27183  -0.60480
  28   35395.8    282.5    321.46255  -0.27932   0.71157  -0.11355
  29   36460.8    274.3    -96.94108  -0.08750   0.15268  -0.76808
  30   29632.0    337.5     33.99938  -0.12843   0.21628   0.07386
  31   30321.2    329.8    -18.71579   0.15057   0.11669   0.06309
  32   36320.4    275.3    -24.73969  -0.18424  -0.05390   0.20381
  33   29077.9    343.9      2.60363   0.02771   0.08585   0.00759
  34   34117.1    293.1     -3.61968  -0.03369   0.01919   0.10707
  35   27922.5    358.1    -109.21701   0.17200  -0.05291  -0.37875
  36   39547.0    252.9     19.07657  -0.03763  -0.07132   0.29241
  37   40408.9    247.5     -0.89322  -0.05002   0.03793  -0.08970
  38   37225.5    268.6    -48.25680  -0.03331   0.31253   0.16991
  39   35132.9    284.6    -146.66351  -0.27780  -0.18648   0.16368
  40   38508.8    259.7     78.27484  -0.09339  -0.02194  -0.40806

-------------------------------------------------------------------
         CD SPECTRUM VIA TRANSITION VELOCITY DIPOLE MOMENTS        
-------------------------------------------------------------------
State  Energy     Wavelength     R         MX        MY        MZ   
       (cm-1)       (nm)     (1e40*cgs)   (au)      (au)      (au)  
-------------------------------------------------------------------
   1   14275.1    700.5     21.55575   0.52191   0.36525  -1.10486
   2   14722.3    679.2      5.86250  -0.21913  -1.15914  -0.49803
   3   15358.1    651.1     -3.22857  -1.15888   0.39170  -0.39441
   4   24947.0    400.8     -1.91125  -0.02816   0.04808  -0.07647
   5   25477.3    392.5     -1.10083  -0.02006  -0.04077  -0.02641
   6   26532.6    376.9     -0.13879  -0.00834  -0.02205   0.02178
   7   32256.5    310.0    -364.33164   0.41774   0.32193   0.56422
   8   33320.0    300.1    -812.38288  -0.23208  -1.00327   0.38615
   9   31896.1    313.5     41.09414   0.08795   0.18617  -0.19824
  10   31884.5    313.6    -48.80755   0.40480   0.27025  -0.19421
  11   31917.5    313.3     -9.78750   0.09709  -0.09678  -0.04660
  12   33267.7    300.6    1157.88230   0.79887  -0.60974  -0.99920
  13   34987.3    285.8     -8.59377  -0.27322   0.05603   0.12783
  14   34940.1    286.2    -107.67273   0.21832   0.01396  -0.42392
  15   35782.8    279.5    -70.88946   0.41684  -0.27351   0.19966
  16   36459.1    274.3     -0.41282   0.00950  -0.49274  -0.27189
  17   36068.6    277.2    126.85385   0.50331  -0.08530   0.04541
  18   35941.6    278.2     32.87143   0.10431   0.21399   0.00326
  19   36709.1    272.4    -51.63426   0.05133   0.09556   0.68756
  20   32366.2    309.0    -58.11151   0.30044  -0.01938  -0.12905
  21   37159.0    269.1    251.37779  -0.50089   0.25532   0.09842
  22   35890.1    278.6     41.91661  -0.25525   0.15889   0.01373
  23   35846.1    279.0     -6.21888   0.02863  -0.06521  -0.20522
  24   36838.1    271.5    -246.09259   0.05290  -0.13937  -0.95129
  25   33776.7    296.1    -167.65313   0.38694  -0.46953  -0.55418
  26   32893.3    304.0      7.23548   0.04737  -0.08757   0.05573
  27   37512.7    266.6    -132.46851  -0.00239   0.27183  -0.60480
  28   35395.8    282.5    388.03608  -0.27932   0.71157  -0.11355
  29   36460.8    274.3    -108.39849  -0.08750   0.15268  -0.76808
  30   29632.0    337.5     51.34404  -0.12843   0.21628   0.07386
  31   30321.2    329.8    -27.87401   0.15057   0.11669   0.06309
  32   36320.4    275.3    -29.96107  -0.18424  -0.05390   0.20381
  33   29077.9    343.9      3.23878   0.02771   0.08585   0.00759
  34   34117.1    293.1     -4.78220  -0.03369   0.01919   0.10707
  35   27922.5    358.1    -181.91215   0.17200  -0.05291  -0.37875
  36   39547.0    252.9     23.84962  -0.03763  -0.07132   0.29241
  37   40408.9    247.5     -1.51592  -0.05002   0.03793  -0.08970
  38   37225.5    268.6    -57.40067  -0.03331   0.31253   0.16991
  39   35132.9    284.6    -199.46317  -0.27780  -0.18648   0.16368
  40   38508.8    259.7     96.15316  -0.09339  -0.02194  -0.40806

Total run time:    12525.258 sec

           *** ORCA-CIS/TD-DFT FINISHED WITHOUT ERROR ***

Maximum memory used throughout the entire CIS-calculation: 4581.0 MB

-----------------------
CIS/TD-DFT TOTAL ENERGY
-----------------------

    E(SCF)  =  -3586.695145451 Eh
    DE(CIS) =      0.065041996 Eh (Root  1)
    ----------------------------- ---------
    E(tot)  =  -3586.630103455 Eh


-------------------------   --------------------
FINAL SINGLE POINT ENERGY     -3586.630103454836
-------------------------   --------------------


                            ***************************************
                            *     ORCA property calculations      *
                            ***************************************


  WARNING: The energy has been calculated at the MP2 level but the densities
           used in the property calculations are still SCF densities
           MP2 response densities have not been calculated 
           use %mp2 Density relaxed end
           or  %mp2 Density unrelaxed end

                                    ---------------------
                                    Active property flags
                                    ---------------------
   (+) Dipole Moment


------------------------------------------------------------------------------
                       ORCA ELECTRIC PROPERTIES CALCULATION
------------------------------------------------------------------------------

Dipole Moment Calculation                       ... on
Quadrupole Moment Calculation                   ... off
Polarizability Calculation                      ... off
GBWName                                         ... FeC_4_SCS-PBE-QIDH_def2SVP.gbw
Electron density                                ... FeC_4_SCS-PBE-QIDH_def2SVP.scfp
The origin for moment calculation is the CENTER OF MASS  = ( 0.008863, -0.032936  0.010296)

-------------
DIPOLE MOMENT
-------------
                                X             Y             Z
Electronic contribution:      1.30894      -3.99651       1.76765
Nuclear contribution   :     -3.36808      12.51579      -3.91256
                        -----------------------------------------
Total Dipole Moment    :     -2.05914       8.51928      -2.14491
                        -----------------------------------------
Magnitude (a.u.)       :      9.02324
Magnitude (Debye)      :     22.93525



--------------------
Rotational spectrum 
--------------------
 
Rotational constants in cm-1:     0.002342     0.001850     0.001765 
Rotational constants in MHz :    70.207339    55.448862    52.928199 

 Dipole components along the rotational axes: 
x,y,z [a.u.] :    -2.044387     8.573304     1.933328 
x,y,z [Debye]:    -5.196419    21.791608     4.914129 

 

Timings for individual modules:

Sum of individual times         ...    13278.502 sec (= 221.308 min)
GTO integral calculation        ...        2.073 sec (=   0.035 min)   0.0 %
SCF iterations                  ...      502.727 sec (=   8.379 min)   3.8 %
MP2 module                      ...      247.695 sec (=   4.128 min)   1.9 %
CIS module                      ...    12526.007 sec (= 208.767 min)  94.3 %
                             ****ORCA TERMINATED NORMALLY****
TOTAL RUN TIME: 0 days 3 hours 41 minutes 20 seconds 541 msec
