
                                 *****************
                                 * O   R   C   A *
                                 *****************

                                            #,                                       
                                            ###                                      
                                            ####                                     
                                            #####                                    
                                            ######                                   
                                           ########,                                 
                                     ,,################,,,,,                         
                               ,,#################################,,                 
                          ,,##########################################,,             
                       ,#########################################, ''#####,          
                    ,#############################################,,   '####,        
                  ,##################################################,,,,####,       
                ,###########''''           ''''###############################       
              ,#####''   ,,,,##########,,,,          '''####'''          '####       
            ,##' ,,,,###########################,,,                        '##       
           ' ,,###''''                  '''############,,,                           
         ,,##''                                '''############,,,,        ,,,,,,###''
      ,#''                                            '''#######################'''  
     '                                                          ''''####''''         
             ,#######,   #######,   ,#######,      ##                                
            ,#'     '#,  ##    ##  ,#'     '#,    #''#        ######   ,####,        
            ##       ##  ##   ,#'  ##            #'  '#       #        #'  '#        
            ##       ##  #######   ##           ,######,      #####,   #    #        
            '#,     ,#'  ##    ##  '#,     ,#' ,#      #,         ##   #,  ,#        
             '#######'   ##     ##  '#######'  #'      '#     #####' # '####'        



                  #######################################################
                  #                        -***-                        #
                  #          Department of theory and spectroscopy      #
                  #    Directorship and core code : Frank Neese         #
                  #        Max Planck Institute fuer Kohlenforschung    #
                  #                Kaiser Wilhelm Platz 1               #
                  #                 D-45470 Muelheim/Ruhr               #
                  #                      Germany                        #
                  #                                                     #
                  #                  All rights reserved                #
                  #                        -***-                        #
                  #######################################################


                         Program Version 5.0.4 -  RELEASE  -


 With contributions from (in alphabetic order):
   Daniel Aravena         : Magnetic Suceptibility
   Michael Atanasov       : Ab Initio Ligand Field Theory (pilot matlab implementation)
   Alexander A. Auer      : GIAO ZORA, VPT2 properties, NMR spectrum
   Ute Becker             : Parallelization
   Giovanni Bistoni       : ED, misc. LED, open-shell LED, HFLD
   Martin Brehm           : Molecular dynamics
   Dmytro Bykov           : SCF Hessian
   Vijay G. Chilkuri      : MRCI spin determinant printing, contributions to CSF-ICE
   Dipayan Datta          : RHF DLPNO-CCSD density
   Achintya Kumar Dutta   : EOM-CC, STEOM-CC
   Dmitry Ganyushin       : Spin-Orbit,Spin-Spin,Magnetic field MRCI
   Miquel Garcia          : C-PCM and meta-GGA Hessian, CC/C-PCM, Gaussian charge scheme
   Yang Guo               : DLPNO-NEVPT2, F12-NEVPT2, CIM, IAO-localization
   Andreas Hansen         : Spin unrestricted coupled pair/coupled cluster methods
   Benjamin Helmich-Paris : MC-RPA, TRAH-SCF, COSX integrals
   Lee Huntington         : MR-EOM, pCC
   Robert Izsak           : Overlap fitted RIJCOSX, COSX-SCS-MP3, EOM
   Marcus Kettner         : VPT2
   Christian Kollmar      : KDIIS, OOCD, Brueckner-CCSD(T), CCSD density, CASPT2, CASPT2-K
   Simone Kossmann        : Meta GGA functionals, TD-DFT gradient, OOMP2, MP2 Hessian
   Martin Krupicka        : Initial AUTO-CI
   Lucas Lang             : DCDCAS
   Marvin Lechner         : AUTO-CI (C++ implementation), FIC-MRCC
   Dagmar Lenk            : GEPOL surface, SMD
   Dimitrios Liakos       : Extrapolation schemes; Compound Job, initial MDCI parallelization
   Dimitrios Manganas     : Further ROCIS development; embedding schemes
   Dimitrios Pantazis     : SARC Basis sets
   Anastasios Papadopoulos: AUTO-CI, single reference methods and gradients
   Taras Petrenko         : DFT Hessian,TD-DFT gradient, ASA, ECA, R-Raman, ABS, FL, XAS/XES, NRVS
   Peter Pinski           : DLPNO-MP2, DLPNO-MP2 Gradient
   Christoph Reimann      : Effective Core Potentials
   Marius Retegan         : Local ZFS, SOC
   Christoph Riplinger    : Optimizer, TS searches, QM/MM, DLPNO-CCSD(T), (RO)-DLPNO pert. Triples
   Tobias Risthaus        : Range-separated hybrids, TD-DFT gradient, RPA, STAB
   Michael Roemelt        : Original ROCIS implementation
   Masaaki Saitow         : Open-shell DLPNO-CCSD energy and density
   Barbara Sandhoefer     : DKH picture change effects
   Avijit Sen             : IP-ROCIS
   Kantharuban Sivalingam : CASSCF convergence, NEVPT2, FIC-MRCI
   Bernardo de Souza      : ESD, SOC TD-DFT
   Georgi Stoychev        : AutoAux, RI-MP2 NMR, DLPNO-MP2 response
   Willem Van den Heuvel  : Paramagnetic NMR
   Boris Wezisla          : Elementary symmetry handling
   Frank Wennmohs         : Technical directorship


 We gratefully acknowledge several colleagues who have allowed us to
 interface, adapt or use parts of their codes:
   Stefan Grimme, W. Hujo, H. Kruse, P. Pracht,  : VdW corrections, initial TS optimization,
                  C. Bannwarth, S. Ehlert          DFT functionals, gCP, sTDA/sTD-DF
   Ed Valeev, F. Pavosevic, A. Kumar             : LibInt (2-el integral package), F12 methods
   Garnet Chan, S. Sharma, J. Yang, R. Olivares  : DMRG
   Ulf Ekstrom                                   : XCFun DFT Library
   Mihaly Kallay                                 : mrcc  (arbitrary order and MRCC methods)
   Jiri Pittner, Ondrej Demel                    : Mk-CCSD
   Frank Weinhold                                : gennbo (NPA and NBO analysis)
   Christopher J. Cramer and Donald G. Truhlar   : smd solvation model
   Lars Goerigk                                  : TD-DFT with DH, B97 family of functionals
   V. Asgeirsson, H. Jonsson                     : NEB implementation
   FAccTs GmbH                                   : IRC, NEB, NEB-TS, DLPNO-Multilevel, CI-OPT
                                                   MM, QMMM, 2- and 3-layer-ONIOM, Crystal-QMMM,
                                                   LR-CPCM, SF, NACMEs, symmetry and pop. for TD-DFT,
                                                   nearIR, NL-DFT gradient (VV10), updates on ESD,
                                                   ML-optimized integration grids
   S Lehtola, MJT Oliveira, MAL Marques          : LibXC Library
   Liviu Ungur et al                             : ANISO software


 Your calculation uses the libint2 library for the computation of 2-el integrals
 For citations please refer to: http://libint.valeyev.net

 Your ORCA version has been built with support for libXC version: 5.1.0
 For citations please refer to: https://tddft.org/programs/libxc/

 This ORCA versions uses:
   CBLAS   interface :  Fast vector & matrix operations
   LAPACKE interface :  Fast linear algebra routines
   SCALAPACK package :  Parallel linear algebra routines
   Shared memory     :  Shared parallel matrices
   BLAS/LAPACK       :  OpenBLAS 0.3.15  USE64BITINT DYNAMIC_ARCH NO_AFFINITY Zen SINGLE_THREADED
        Core in use  :  Zen
   Copyright (c) 2011-2014, The OpenBLAS Project


Your calculation utilizes the SMD solvation module
Please cite in your paper:
A.V. Marenich, C.J. Cramer, D.G. Truhlar J. Phys. Chem. B, 113, (2009), 6378 

================================================================================

----- Orbital basis set information -----
Your calculation utilizes the basis: def2-SVP
   F. Weigend and R. Ahlrichs, Phys. Chem. Chem. Phys. 7, 3297 (2005).

----- AuxJ basis set information -----
Your calculation utilizes the auxiliary basis: def2/J
   F. Weigend, Phys. Chem. Chem. Phys. 8, 1057 (2006).

----- AuxC basis set information -----
Your calculation utilizes the auxiliary basis: def2-SVP/C
  H-La, Hf-Rn : A. Hellweg, C. Hattig, S. Hofener and W. Klopper, Theor. Chem. Acc. 117, 587 (2007).
        Ce-Lu : J. Chmela and M. E. Harding, Mol. Phys. (2018).

================================================================================
                                        WARNINGS
                       Please study these warnings very carefully!
================================================================================

INFO   : Checking CIS options ...
  ===> : (D) CORRECTION FOUND - SETTING MODE=3
  ===> : JK MODE FOUND - ACTIVATING RI-MP2 CODE
  ===> : MP2 AND CIS FOUND - CHECKING
WARNING: CIS(D) and MP2 runs must have the same orbital window
  ===> : adjusting orbital windows

WARNING: No MP2 level density has been requested!
         To caclulate MP2 level properties use
         %mp2 Density relaxed end
         or
         %mp2 Density unrelaxed end
         Otherwise for double-hybrid DFT only the energy is correct!

WARNING: The frozen-core approximation is turned on by default for 
         the MP2 part of double-hybrid DFT.

WARNING: CIS/ROCIS methods need fully converged wavefunctions
  ===> : Setting SCFConvForced true
         You can overwrite this default with %scf ConvForced false 


INFO   : the flag for use of the SHARK integral package has been found!

================================================================================
                                       INPUT FILE
================================================================================
NAME = FeC_4_B2GPPLYP_def2SVP.inp
|  1> %maxcore 6000
|  2> %pal
|  3>  nprocs 8
|  4> end
|  5> ! RI-B2GP-PLYP def2-SVP def2/J def2-SVP/C RIJCOSX CPCM TIGHTSCF
|  6> 
|  7> %TDDFT 
|  8>     DCORR      4
|  9>     NROOTS    40
| 10>     TDA       FALSE
| 11> END
| 12> 
| 13> %CPCM
| 14>     SMD		TRUE
| 15>     SMDsolvent	"Acetonitrile"
| 16> END
| 17> 
| 18> * xyz 2 1
| 19> Fe                 -0.18443400    1.05691900   -0.14483500
| 20> N                  -0.45141900    2.99521900   -0.51342800
| 21> C                   0.48875800    3.80074400    0.05491000
| 22> C                  -1.38066200    3.55541600   -1.29519600
| 23> C                   0.49530100    5.18331200   -0.12762900
| 24> C                  -1.43442300    4.92992000   -1.52113800
| 25> H                  -2.10511800    2.88586000   -1.76305900
| 26> C                  -0.48754000    5.75915300   -0.92641900
| 27> H                   1.27031500    5.78119000    0.35371800
| 28> H                  -2.21816900    5.33257700   -2.16348500
| 29> H                  -0.51008600    6.83790200   -1.08791400
| 30> C                   1.46140400    3.09144700    0.84730000
| 31> H                   2.26188000    3.62966500    1.36849700
| 32> N                   1.33638300    1.80241100    0.91333600
| 33> C                   2.29050700    1.04157900    1.62714400
| 34> C                   3.66315200    1.17422700    1.37216200
| 35> C                   1.84596700    0.10026600    2.55565900
| 36> C                   4.57942500    0.34976700    2.02358400
| 37> H                   4.00823500    1.90821400    0.63949100
| 38> C                   2.78161900   -0.70471400    3.19014400
| 39> H                   0.79323300    0.01225100    2.81133700
| 40> C                   4.14862900   -0.60608500    2.93808700
| 41> H                   5.64353000    0.44781300    1.80260000
| 42> N                  -1.32476600    0.96618500    1.48234400
| 43> C                  -1.56743300   -0.30234200    1.92027300
| 44> C                  -1.88841100    1.98586900    2.13884100
| 45> C                  -2.40609600   -0.57017800    3.00180400
| 46> C                  -2.73129700    1.79150000    3.23227200
| 47> H                  -1.67211800    2.99266600    1.77372800
| 48> C                  -3.00388100    0.49664000    3.66607600
| 49> H                  -2.56573800   -1.60472800    3.30990800
| 50> H                  -3.16668900    2.65900500    3.72905200
| 51> H                  -3.66535200    0.32094800    4.51580900
| 52> C                  -0.83074800   -1.31854000    1.20957900
| 53> H                  -0.94168900   -2.37678500    1.47707100
| 54> N                   0.00242500   -0.90857900    0.30272500
| 55> C                   0.74312000   -1.84156600   -0.45301400
| 56> C                   0.16280000   -3.02118600   -0.94520500
| 57> C                   2.07480200   -1.54682700   -0.75558600
| 58> C                   0.90955800   -3.89002200   -1.73903400
| 59> H                  -0.88144700   -3.24938600   -0.71859400
| 60> C                   2.79383000   -2.43305900   -1.54491200
| 61> H                   2.55060700   -0.64546000   -0.37385200
| 62> C                   2.23523100   -3.60471600   -2.05217800
| 63> H                   0.44563600   -4.79854300   -2.12629700
| 64> N                   0.83205700    0.94835200   -1.87323100
| 65> C                   0.11165600    0.42715100   -2.90407500
| 66> C                   2.09989500    1.30326000   -2.10579400
| 67> C                   0.65934300    0.21892800   -4.16979000
| 68> C                   2.71247000    1.12976100   -3.34628600
| 69> H                   2.66106500    1.72529200   -1.26965400
| 70> C                   1.98705400    0.57062300   -4.39383600
| 71> H                   0.03699600   -0.21223300   -4.95508700
| 72> H                   3.75460800    1.42569400   -3.46974400
| 73> H                   2.44566000    0.41557400   -5.37159700
| 74> C                  -1.25175700    0.10325400   -2.56596800
| 75> H                  -1.91300000   -0.36390500   -3.30588600
| 76> N                  -1.64885600    0.39203400   -1.36688900
| 77> C                  -2.92569200   -0.03281600   -0.93609500
| 78> C                  -3.29648600   -1.36885900   -1.10259900
| 79> C                  -3.78790200    0.85562200   -0.27673900
| 80> C                  -4.52099200   -1.78828600   -0.59274400
| 81> H                  -2.63646600   -2.07682600   -1.60392200
| 82> C                  -5.01494900    0.41039800    0.20515400
| 83> H                  -3.49553800    1.89953200   -0.15310500
| 84> C                  -5.39321500   -0.92306900    0.06080400
| 85> H                  -5.68270600    1.11084100    0.70969600
| 86> N                  -4.88931900   -3.20264000   -0.74284500
| 87> O                  -4.06604900   -3.95513900   -1.24191100
| 88> O                  -5.99573500   -3.54547600   -0.35890600
| 89> N                   4.18572600   -2.09597100   -1.87387400
| 90> O                   4.81965600   -2.89403200   -2.54485300
| 91> O                   4.62763200   -1.03328300   -1.46161300
| 92> N                   2.29398000   -1.70752800    4.14661900
| 93> O                   1.08469700   -1.85819300    4.24595200
| 94> O                   3.12335800   -2.33819500    4.78123300
| 95> H                  -6.34131600   -1.29407200    0.44900700
| 96> H                   2.83073200   -4.26658500   -2.68016200
| 97> H                   4.84804100   -1.26766800    3.44830100
| 98> *
| 99> 
|100>                          ****END OF INPUT****
================================================================================

                       ****************************
                       * Single Point Calculation *
                       ****************************

---------------------------------
CARTESIAN COORDINATES (ANGSTROEM)
---------------------------------
  Fe    -0.184434    1.056919   -0.144835
  N     -0.451419    2.995219   -0.513428
  C      0.488758    3.800744    0.054910
  C     -1.380662    3.555416   -1.295196
  C      0.495301    5.183312   -0.127629
  C     -1.434423    4.929920   -1.521138
  H     -2.105118    2.885860   -1.763059
  C     -0.487540    5.759153   -0.926419
  H      1.270315    5.781190    0.353718
  H     -2.218169    5.332577   -2.163485
  H     -0.510086    6.837902   -1.087914
  C      1.461404    3.091447    0.847300
  H      2.261880    3.629665    1.368497
  N      1.336383    1.802411    0.913336
  C      2.290507    1.041579    1.627144
  C      3.663152    1.174227    1.372162
  C      1.845967    0.100266    2.555659
  C      4.579425    0.349767    2.023584
  H      4.008235    1.908214    0.639491
  C      2.781619   -0.704714    3.190144
  H      0.793233    0.012251    2.811337
  C      4.148629   -0.606085    2.938087
  H      5.643530    0.447813    1.802600
  N     -1.324766    0.966185    1.482344
  C     -1.567433   -0.302342    1.920273
  C     -1.888411    1.985869    2.138841
  C     -2.406096   -0.570178    3.001804
  C     -2.731297    1.791500    3.232272
  H     -1.672118    2.992666    1.773728
  C     -3.003881    0.496640    3.666076
  H     -2.565738   -1.604728    3.309908
  H     -3.166689    2.659005    3.729052
  H     -3.665352    0.320948    4.515809
  C     -0.830748   -1.318540    1.209579
  H     -0.941689   -2.376785    1.477071
  N      0.002425   -0.908579    0.302725
  C      0.743120   -1.841566   -0.453014
  C      0.162800   -3.021186   -0.945205
  C      2.074802   -1.546827   -0.755586
  C      0.909558   -3.890022   -1.739034
  H     -0.881447   -3.249386   -0.718594
  C      2.793830   -2.433059   -1.544912
  H      2.550607   -0.645460   -0.373852
  C      2.235231   -3.604716   -2.052178
  H      0.445636   -4.798543   -2.126297
  N      0.832057    0.948352   -1.873231
  C      0.111656    0.427151   -2.904075
  C      2.099895    1.303260   -2.105794
  C      0.659343    0.218928   -4.169790
  C      2.712470    1.129761   -3.346286
  H      2.661065    1.725292   -1.269654
  C      1.987054    0.570623   -4.393836
  H      0.036996   -0.212233   -4.955087
  H      3.754608    1.425694   -3.469744
  H      2.445660    0.415574   -5.371597
  C     -1.251757    0.103254   -2.565968
  H     -1.913000   -0.363905   -3.305886
  N     -1.648856    0.392034   -1.366889
  C     -2.925692   -0.032816   -0.936095
  C     -3.296486   -1.368859   -1.102599
  C     -3.787902    0.855622   -0.276739
  C     -4.520992   -1.788286   -0.592744
  H     -2.636466   -2.076826   -1.603922
  C     -5.014949    0.410398    0.205154
  H     -3.495538    1.899532   -0.153105
  C     -5.393215   -0.923069    0.060804
  H     -5.682706    1.110841    0.709696
  N     -4.889319   -3.202640   -0.742845
  O     -4.066049   -3.955139   -1.241911
  O     -5.995735   -3.545476   -0.358906
  N      4.185726   -2.095971   -1.873874
  O      4.819656   -2.894032   -2.544853
  O      4.627632   -1.033283   -1.461613
  N      2.293980   -1.707528    4.146619
  O      1.084697   -1.858193    4.245952
  O      3.123358   -2.338195    4.781233
  H     -6.341316   -1.294072    0.449007
  H      2.830732   -4.266585   -2.680162
  H      4.848041   -1.267668    3.448301

----------------------------
CARTESIAN COORDINATES (A.U.)
----------------------------
  NO LB      ZA    FRAG     MASS         X           Y           Z
   0 Fe   26.0000    0    55.850   -0.348530    1.997287   -0.273698
   1 N     7.0000    0    14.007   -0.853058    5.660144   -0.970238
   2 C     6.0000    0    12.011    0.923619    7.182365    0.103765
   3 C     6.0000    0    12.011   -2.609073    6.718763   -2.447566
   4 C     6.0000    0    12.011    0.935983    9.795040   -0.241184
   5 C     6.0000    0    12.011   -2.710667    9.316199   -2.874534
   6 H     1.0000    0     1.008   -3.978096    5.453485   -3.331699
   7 C     6.0000    0    12.011   -0.921317   10.883222   -1.750678
   8 H     1.0000    0     1.008    2.400547   10.924866    0.668430
   9 H     1.0000    0     1.008   -4.191732   10.077110   -4.088394
  10 H     1.0000    0     1.008   -0.963923   12.921762   -2.055860
  11 C     6.0000    0    12.011    2.761653    5.841988    1.601165
  12 H     1.0000    0     1.008    4.274334    6.859073    2.586085
  13 N     7.0000    0    14.007    2.525398    3.406063    1.725955
  14 C     6.0000    0    12.011    4.328431    1.968299    3.074857
  15 C     6.0000    0    12.011    6.922354    2.218967    2.593010
  16 C     6.0000    0    12.011    3.488372    0.189475    4.829496
  17 C     6.0000    0    12.011    8.653859    0.660964    3.824020
  18 H     1.0000    0     1.008    7.574466    3.606002    1.208463
  19 C     6.0000    0    12.011    5.256498   -1.331716    6.028498
  20 H     1.0000    0     1.008    1.498993    0.023151    5.312657
  21 C     6.0000    0    12.011    7.839773   -1.145335    5.552180
  22 H     1.0000    0     1.008   10.664726    0.846244    3.406420
  23 N     7.0000    0    14.007   -2.503445    1.825825    2.801224
  24 C     6.0000    0    12.011   -2.962019   -0.571344    3.628790
  25 C     6.0000    0    12.011   -3.568580    3.752749    4.041824
  26 C     6.0000    0    12.011   -4.546862   -1.077480    5.672587
  27 C     6.0000    0    12.011   -5.161403    3.385444    6.108109
  28 H     1.0000    0     1.008   -3.159845    5.655319    3.351860
  29 C     6.0000    0    12.011   -5.676512    0.938514    6.927880
  30 H     1.0000    0     1.008   -4.848542   -3.032496    6.254820
  31 H     1.0000    0     1.008   -5.984175    5.024791    7.046887
  32 H     1.0000    0     1.008   -6.926511    0.606504    8.533642
  33 C     6.0000    0    12.011   -1.569886   -2.491679    2.285773
  34 H     1.0000    0     1.008   -1.779534   -4.491473    2.791260
  35 N     7.0000    0    14.007    0.004583   -1.716965    0.572067
  36 C     6.0000    0    12.011    1.404293   -3.480055   -0.856072
  37 C     6.0000    0    12.011    0.307647   -5.709214   -1.786179
  38 C     6.0000    0    12.011    3.920808   -2.923079   -1.427851
  39 C     6.0000    0    12.011    1.718816   -7.351076   -3.286298
  40 H     1.0000    0     1.008   -1.665693   -6.140450   -1.357946
  41 C     6.0000    0    12.011    5.279574   -4.597815   -2.919461
  42 H     1.0000    0     1.008    4.819949   -1.219743   -0.706478
  43 C     6.0000    0    12.011    4.223974   -6.811926   -3.878054
  44 H     1.0000    0     1.008    0.842130   -9.067932   -4.018119
  45 N     7.0000    0    14.007    1.572360    1.792126   -3.539894
  46 C     6.0000    0    12.011    0.210999    0.807198   -5.487906
  47 C     6.0000    0    12.011    3.968226    2.462804   -3.979374
  48 C     6.0000    0    12.011    1.245978    0.413714   -7.879761
  49 C     6.0000    0    12.011    5.125825    2.134939   -6.323564
  50 H     1.0000    0     1.008    5.028684    3.260329   -2.399298
  51 C     6.0000    0    12.011    3.754988    1.078321   -8.303147
  52 H     1.0000    0     1.008    0.069912   -0.401062   -9.363757
  53 H     1.0000    0     1.008    7.095181    2.694171   -6.556866
  54 H     1.0000    0     1.008    4.621628    0.785321  -10.150847
  55 C     6.0000    0    12.011   -2.365478    0.195122   -4.848977
  56 H     1.0000    0     1.008   -3.615046   -0.687681   -6.247219
  57 N     7.0000    0    14.007   -3.115886    0.740837   -2.583046
  58 C     6.0000    0    12.011   -5.528757   -0.062013   -1.768963
  59 C     6.0000    0    12.011   -6.229456   -2.586769   -2.083610
  60 C     6.0000    0    12.011   -7.158097    1.616891   -0.522961
  61 C     6.0000    0    12.011   -8.543437   -3.379371   -1.120124
  62 H     1.0000    0     1.008   -4.982199   -3.924632   -3.030973
  63 C     6.0000    0    12.011   -9.476880    0.775540    0.387685
  64 H     1.0000    0     1.008   -6.605610    3.589595   -0.289327
  65 C     6.0000    0    12.011  -10.191699   -1.744348    0.114903
  66 H     1.0000    0     1.008  -10.738758    2.099185    1.341131
  67 N     7.0000    0    14.007   -9.239474   -6.052113   -1.403774
  68 O     8.0000    0    15.999   -7.683719   -7.474130   -2.346872
  69 O     8.0000    0    15.999  -11.330297   -6.699979   -0.678234
  70 N     7.0000    0    14.007    7.909876   -3.960811   -3.541109
  71 O     8.0000    0    15.999    9.107830   -5.468928   -4.809075
  72 O     8.0000    0    15.999    8.744957   -1.952622   -2.762048
  73 N     7.0000    0    14.007    4.334994   -3.226760    7.835974
  74 O     8.0000    0    15.999    2.049780   -3.511476    8.023686
  75 O     8.0000    0    15.999    5.902291   -4.418548    9.035221
  76 H     1.0000    0     1.008  -11.983351   -2.445442    0.848500
  77 H     1.0000    0     1.008    5.349308   -8.062677   -5.064772
  78 H     1.0000    0     1.008    9.161470   -2.395545    6.516345

--------------------------------
INTERNAL COORDINATES (ANGSTROEM)
--------------------------------
 Fe     0   0   0     0.000000000000     0.00000000     0.00000000
 N      1   0   0     1.991016996380     0.00000000     0.00000000
 C      2   1   0     1.362281688638   113.94562936     0.00000000
 C      2   1   3     1.337338565092   127.53122448   175.98470503
 C      3   2   1     1.394581504249   122.33323663   177.80794563
 C      4   2   1     1.393987546035   122.31552111   182.73968017
 H      4   2   1     1.091804707739   117.04385136     2.39713569
 C      5   3   2     1.391270912749   118.82699135   359.52156505
 H      5   3   2     1.090779417430   119.27297124   179.81096839
 H      6   4   2     1.090412821171   119.16392518   180.36261754
 H      8   5   3     1.091003374029   120.58610804   179.94087574
 C      3   2   1     1.441188532991   113.83719208   357.96600036
 H     12   3   2     1.096397170239   120.83073834   180.87232192
 N     12   3   2     1.296767061979   116.88231919     0.60059344
 C     14  12   3     1.413767944347   119.70911110   177.31580922
 C     15  14  12     1.402414207092   121.18839366   307.69155494
 C     15  14  12     1.394928700971   118.95750615   130.68883139
 C     16  15  14     1.394145302403   120.15812053   184.33740015
 H     16  15  14     1.092989472639   119.63140229     2.63592189
 C     17  15  14     1.387807148248   118.74290828   175.85326444
 H     17  15  14     1.086906966886   121.32476948   353.77021318
 C     18  16  15     1.391241882826   120.65935745   359.58275597
 H     18  16  15     1.091222432594   119.54703571   178.76396802
 N      1   2   3     1.989045305422    96.83320459    92.08752889
 C     24   1   2     1.363755781531   114.02557239   169.85201358
 C     24   1   2     1.337325486518   127.47704949   352.01541697
 C     25  24   1     1.394561240830   122.32329972   183.63488324
 C     26  24   1     1.394212131965   122.24255885   176.44968421
 H     26  24   1     1.092579683056   117.07332182   357.25889204
 C     27  25  24     1.391655431971   118.76886952   359.25960667
 H     27  25  24     1.091195374569   119.27786864   179.96312964
 H     28  26  24     1.090376763825   119.19620424   180.19045822
 H     30  27  25     1.091080993325   120.57838680   179.98945710
 C     25  24   1     1.442376208229   113.96815421     6.55406213
 H     34  25  24     1.097151929119   120.51556966   179.74208233
 N     34  25  24     1.297932758954   116.71736348     3.09150270
 C     36  34  25     1.410756981664   120.16091196   181.13940012
 C     37  36  34     1.403754475427   121.77064821    41.52010220
 C     37  36  34     1.397067586922   118.48693122   219.04580976
 C     38  37  36     1.393803424698   120.13447947   177.09641611
 H     38  37  36     1.092647968163   119.85974371   358.11190994
 C     39  37  36     1.387603674283   118.84119920   182.62902893
 H     39  37  36     1.088381235354   121.02857142     3.29248405
 C     40  38  37     1.391713900664   120.71088621     0.12592095
 H     40  38  37     1.091149238507   119.56225142   180.71260342
 N      1   2   3     2.008082040004    87.77458535   266.39235012
 C     46   1   2     1.361347654179   113.86506936   258.81324813
 C     46   1   2     1.336958649950   127.98091651    79.79268016
 C     47  46   1     1.394758878417   122.44734648   182.72652167
 C     48  46   1     1.394335123164   122.57091841   177.41510652
 H     48  46   1     1.091857535361   117.17982816   358.60879474
 C     50  48  46     1.391482906327   119.38872350     0.21332598
 H     49  47  46     1.090828572480   119.22752275   179.33779366
 H     50  48  46     1.090353075520   119.13485725   180.90366868
 H     52  50  48     1.091043642004   120.83954282   180.57179266
 C     47  46   1     1.441568804680   114.13662961     2.21953628
 H     56  47  46     1.096794640329   120.50907780   182.70656210
 N     56  47  46     1.295712912817   117.18266560     2.95688150
 C     58  56  47     1.412937070018   119.47801055   186.79973583
 C     59  58  56     1.396503730858   119.42315303    50.34128543
 C     59  58  56     1.402668349497   120.55414498   226.67109740
 C     60  59  58     1.391145597481   118.58472597   175.78753890
 H     60  59  58     1.090031386621   121.02667025   356.92680603
 C     61  59  58     1.391434372809   120.14576145   183.32964223
 H     61  59  58     1.091105019030   119.64011258     3.96011627
 C     62  60  59     1.391581261415   122.43712072     0.78577137
 H     64  61  59     1.091367232907   119.62461484   180.49655754
 N     62  60  59     1.469214867351   118.25932290   181.47710801
 O     68  62  60     1.221922710427   117.75271619     4.06199197
 O     68  62  60     1.220287688897   117.75003016   183.96658023
 N     42  39  37     1.469428049278   118.14290797   178.90925672
 O     71  42  39     1.220238264874   117.72123499   178.48917595
 O     71  42  39     1.222516188155   117.79537044   358.19342833
 N     20  17  15     1.469105897661   118.02159670   181.10936281
 O     74  20  17     1.222674266190   117.72973027     6.21583788
 O     74  20  17     1.219976909933   117.76761749   185.78678609
 H     66  62  60     1.089605571489   120.06675211   180.26368987
 H     44  40  38     1.089520958228   121.72133766   180.68442712
 H     22  18  16     1.089581358793   121.74961029   179.25450092

---------------------------
INTERNAL COORDINATES (A.U.)
---------------------------
 Fe     0   0   0     0.000000000000     0.00000000     0.00000000
 N      1   0   0     3.762476851141     0.00000000     0.00000000
 C      2   1   0     2.574339308781   113.94562936     0.00000000
 C      2   1   3     2.527203636355   127.53122448   175.98470503
 C      3   2   1     2.635377114463   122.33323663   177.80794563
 C      4   2   1     2.634254696103   122.31552111   182.73968017
 H      4   2   1     2.063211889353   117.04385136     2.39713569
 C      5   3   2     2.629121003187   118.82699135   359.52156505
 H      5   3   2     2.061274371461   119.27297124   179.81096839
 H      6   4   2     2.060581604930   119.16392518   180.36261754
 H      8   5   3     2.061697588098   120.58610804   179.94087574
 C      3   2   1     2.723451634701   113.83719208   357.96600036
 H     12   3   2     2.071890385759   120.83073834   180.87232192
 N     12   3   2     2.450534606630   116.88231919     0.60059344
 C     14  12   3     2.671634231733   119.70911110   177.31580922
 C     15  14  12     2.650178777724   121.18839366   307.69155494
 C     15  14  12     2.636033221183   118.95750615   130.68883139
 C     16  15  14     2.634552812435   120.15812053   184.33740015
 H     16  15  14     2.065450770546   119.63140229     2.63592189
 C     17  15  14     2.622575436887   118.74290828   175.85326444
 H     17  15  14     2.053956500465   121.32476948   353.77021318
 C     18  16  15     2.629066144582   120.65935745   359.58275597
 H     18  16  15     2.062111548795   119.54703571   178.76396802
 N      1   2   3     3.758750895209    96.83320459    92.08752889
 C     24   1   2     2.577124940645   114.02557239   169.85201358
 C     24   1   2     2.527178921432   127.47704949   352.01541697
 C     25  24   1     2.635338822151   122.32329972   183.63488324
 C     26  24   1     2.634679102004   122.24255885   176.44968421
 H     26  24   1     2.064676380463   117.07332182   357.25889204
 C     27  25  24     2.629847639208   118.76886952   359.25960667
 H     27  25  24     2.062060416536   119.27786864   179.96312964
 H     28  26  24     2.060513466420   119.19620424   180.19045822
 H     30  27  25     2.061844267310   120.57838680   179.98945710
 C     25  24   1     2.725696015637   113.96815421     6.55406213
 H     34  25  24     2.073316673339   120.51556966   179.74208233
 N     34  25  24     2.452737454668   116.71736348     3.09150270
 C     36  34  25     2.665944336863   120.16091196   181.13940012
 C     37  36  34     2.652711517823   121.77064821    41.52010220
 C     37  36  34     2.640075129861   118.48693122   219.04580976
 C     38  37  36     2.633906757202   120.13447947   177.09641611
 H     38  37  36     2.064805420613   119.85974371   358.11190994
 C     39  37  36     2.622190926818   118.84119920   182.62902893
 H     39  37  36     2.056742464117   121.02857142     3.29248405
 C     40  38  37     2.629958129026   120.71088621     0.12592095
 H     40  38  37     2.061973232015   119.56225142   180.71260342
 N      1   2   3     3.794725110053    87.77458535   266.39235012
 C     46   1   2     2.572574239454   113.86506936   258.81324813
 C     46   1   2     2.526485700783   127.98091651    79.79268016
 C     47  46   1     2.635712303063   122.44734648   182.72652167
 C     48  46   1     2.634911521688   122.57091841   177.41510652
 H     48  46   1     2.063311719090   117.17982816   358.60879474
 C     50  48  46     2.629521612991   119.38872350     0.21332598
 H     49  47  46     2.061367261044   119.22752275   179.33779366
 H     50  48  46     2.060468702012   119.13485725   180.90366868
 H     52  50  48     2.061773683544   120.83954282   180.57179266
 C     47  46   1     2.724170244050   114.13662961     2.21953628
 H     56  47  46     2.072641495374   120.50907780   182.70656210
 N     56  47  46     2.448542553410   117.18266560     2.95688150
 C     58  56  47     2.670064106800   119.47801055   186.79973583
 C     59  58  56     2.639009596321   119.42315303    50.34128543
 C     59  58  56     2.650659037268   120.55414498   226.67109740
 C     60  59  58     2.628884191649   118.58472597   175.78753890
 H     60  59  58     2.059860798091   121.02667025   356.92680603
 C     61  59  58     2.629429897933   120.14576145   183.32964223
 H     61  59  58     2.061889669313   119.64011258     3.96011627
 C     62  60  59     2.629707477171   122.43712072     0.78577137
 H     64  61  59     2.062385181729   119.62461484   180.49655754
 N     62  60  59     2.776413731179   118.25932290   181.47710801
 O     68  62  60     2.309099279526   117.75271619     4.06199197
 O     68  62  60     2.306009536611   117.75003016   183.96658023
 N     42  39  37     2.776816586637   118.14290797   178.90925672
 O     71  42  39     2.305916138743   117.72123499   178.48917595
 O     71  42  39     2.310220789898   117.79537044   358.19342833
 N     20  17  15     2.776207808308   118.02159670   181.10936281
 O     74  20  17     2.310519514092   117.72973027     6.21583788
 O     74  20  17     2.305422249480   117.76761749   185.78678609
 H     66  62  60     2.059056124108   120.06675211   180.26368987
 H     44  40  38     2.058896228218   121.72133766   180.68442712
 H     22  18  16     2.059010368744   121.74961029   179.25450092

---------------------
BASIS SET INFORMATION
---------------------
There are 5 groups of distinct atoms

 Group   1 Type Fe  : 14s9p5d1f contracted to 5s3p2d1f pattern {63311/531/41/1}
 Group   2 Type N   : 7s4p1d contracted to 3s2p1d pattern {511/31/1}
 Group   3 Type C   : 7s4p1d contracted to 3s2p1d pattern {511/31/1}
 Group   4 Type H   : 4s1p contracted to 2s1p pattern {31/1}
 Group   5 Type O   : 7s4p1d contracted to 3s2p1d pattern {511/31/1}

Atom   0Fe   basis set group =>   1
Atom   1N    basis set group =>   2
Atom   2C    basis set group =>   3
Atom   3C    basis set group =>   3
Atom   4C    basis set group =>   3
Atom   5C    basis set group =>   3
Atom   6H    basis set group =>   4
Atom   7C    basis set group =>   3
Atom   8H    basis set group =>   4
Atom   9H    basis set group =>   4
Atom  10H    basis set group =>   4
Atom  11C    basis set group =>   3
Atom  12H    basis set group =>   4
Atom  13N    basis set group =>   2
Atom  14C    basis set group =>   3
Atom  15C    basis set group =>   3
Atom  16C    basis set group =>   3
Atom  17C    basis set group =>   3
Atom  18H    basis set group =>   4
Atom  19C    basis set group =>   3
Atom  20H    basis set group =>   4
Atom  21C    basis set group =>   3
Atom  22H    basis set group =>   4
Atom  23N    basis set group =>   2
Atom  24C    basis set group =>   3
Atom  25C    basis set group =>   3
Atom  26C    basis set group =>   3
Atom  27C    basis set group =>   3
Atom  28H    basis set group =>   4
Atom  29C    basis set group =>   3
Atom  30H    basis set group =>   4
Atom  31H    basis set group =>   4
Atom  32H    basis set group =>   4
Atom  33C    basis set group =>   3
Atom  34H    basis set group =>   4
Atom  35N    basis set group =>   2
Atom  36C    basis set group =>   3
Atom  37C    basis set group =>   3
Atom  38C    basis set group =>   3
Atom  39C    basis set group =>   3
Atom  40H    basis set group =>   4
Atom  41C    basis set group =>   3
Atom  42H    basis set group =>   4
Atom  43C    basis set group =>   3
Atom  44H    basis set group =>   4
Atom  45N    basis set group =>   2
Atom  46C    basis set group =>   3
Atom  47C    basis set group =>   3
Atom  48C    basis set group =>   3
Atom  49C    basis set group =>   3
Atom  50H    basis set group =>   4
Atom  51C    basis set group =>   3
Atom  52H    basis set group =>   4
Atom  53H    basis set group =>   4
Atom  54H    basis set group =>   4
Atom  55C    basis set group =>   3
Atom  56H    basis set group =>   4
Atom  57N    basis set group =>   2
Atom  58C    basis set group =>   3
Atom  59C    basis set group =>   3
Atom  60C    basis set group =>   3
Atom  61C    basis set group =>   3
Atom  62H    basis set group =>   4
Atom  63C    basis set group =>   3
Atom  64H    basis set group =>   4
Atom  65C    basis set group =>   3
Atom  66H    basis set group =>   4
Atom  67N    basis set group =>   2
Atom  68O    basis set group =>   5
Atom  69O    basis set group =>   5
Atom  70N    basis set group =>   2
Atom  71O    basis set group =>   5
Atom  72O    basis set group =>   5
Atom  73N    basis set group =>   2
Atom  74O    basis set group =>   5
Atom  75O    basis set group =>   5
Atom  76H    basis set group =>   4
Atom  77H    basis set group =>   4
Atom  78H    basis set group =>   4
---------------------------------
AUXILIARY/J BASIS SET INFORMATION
---------------------------------
There are 5 groups of distinct atoms

 Group   1 Type Fe  : 19s5p5d3f3g contracted to 8s5p5d2f3g pattern {121111111/11111/11111/21/111}
 Group   2 Type N   : 12s5p4d2f1g contracted to 6s4p3d1f1g pattern {711111/2111/211/2/1}
 Group   3 Type C   : 12s5p4d2f1g contracted to 6s4p3d1f1g pattern {711111/2111/211/2/1}
 Group   4 Type H   : 5s2p1d contracted to 3s1p1d pattern {311/2/1}
 Group   5 Type O   : 12s5p4d2f1g contracted to 6s4p3d1f1g pattern {711111/2111/211/2/1}

Atom   0Fe   basis set group =>   1
Atom   1N    basis set group =>   2
Atom   2C    basis set group =>   3
Atom   3C    basis set group =>   3
Atom   4C    basis set group =>   3
Atom   5C    basis set group =>   3
Atom   6H    basis set group =>   4
Atom   7C    basis set group =>   3
Atom   8H    basis set group =>   4
Atom   9H    basis set group =>   4
Atom  10H    basis set group =>   4
Atom  11C    basis set group =>   3
Atom  12H    basis set group =>   4
Atom  13N    basis set group =>   2
Atom  14C    basis set group =>   3
Atom  15C    basis set group =>   3
Atom  16C    basis set group =>   3
Atom  17C    basis set group =>   3
Atom  18H    basis set group =>   4
Atom  19C    basis set group =>   3
Atom  20H    basis set group =>   4
Atom  21C    basis set group =>   3
Atom  22H    basis set group =>   4
Atom  23N    basis set group =>   2
Atom  24C    basis set group =>   3
Atom  25C    basis set group =>   3
Atom  26C    basis set group =>   3
Atom  27C    basis set group =>   3
Atom  28H    basis set group =>   4
Atom  29C    basis set group =>   3
Atom  30H    basis set group =>   4
Atom  31H    basis set group =>   4
Atom  32H    basis set group =>   4
Atom  33C    basis set group =>   3
Atom  34H    basis set group =>   4
Atom  35N    basis set group =>   2
Atom  36C    basis set group =>   3
Atom  37C    basis set group =>   3
Atom  38C    basis set group =>   3
Atom  39C    basis set group =>   3
Atom  40H    basis set group =>   4
Atom  41C    basis set group =>   3
Atom  42H    basis set group =>   4
Atom  43C    basis set group =>   3
Atom  44H    basis set group =>   4
Atom  45N    basis set group =>   2
Atom  46C    basis set group =>   3
Atom  47C    basis set group =>   3
Atom  48C    basis set group =>   3
Atom  49C    basis set group =>   3
Atom  50H    basis set group =>   4
Atom  51C    basis set group =>   3
Atom  52H    basis set group =>   4
Atom  53H    basis set group =>   4
Atom  54H    basis set group =>   4
Atom  55C    basis set group =>   3
Atom  56H    basis set group =>   4
Atom  57N    basis set group =>   2
Atom  58C    basis set group =>   3
Atom  59C    basis set group =>   3
Atom  60C    basis set group =>   3
Atom  61C    basis set group =>   3
Atom  62H    basis set group =>   4
Atom  63C    basis set group =>   3
Atom  64H    basis set group =>   4
Atom  65C    basis set group =>   3
Atom  66H    basis set group =>   4
Atom  67N    basis set group =>   2
Atom  68O    basis set group =>   5
Atom  69O    basis set group =>   5
Atom  70N    basis set group =>   2
Atom  71O    basis set group =>   5
Atom  72O    basis set group =>   5
Atom  73N    basis set group =>   2
Atom  74O    basis set group =>   5
Atom  75O    basis set group =>   5
Atom  76H    basis set group =>   4
Atom  77H    basis set group =>   4
Atom  78H    basis set group =>   4
---------------------------------
AUXILIARY/C BASIS SET INFORMATION
---------------------------------
There are 5 groups of distinct atoms

 Group   1 Type Fe  : 9s9p6d4f3g2h contracted to 9s9p6d4f3g2h pattern {111111111/111111111/111111/1111/111/11}
 Group   2 Type N   : 8s6p5d3f contracted to 6s5p4d1f pattern {311111/21111/2111/3}
 Group   3 Type C   : 8s6p5d3f contracted to 6s5p4d1f pattern {311111/21111/2111/3}
 Group   4 Type H   : 4s3p2d contracted to 3s2p1d pattern {211/21/2}
 Group   5 Type O   : 8s6p5d3f contracted to 6s5p4d1f pattern {311111/21111/2111/3}

Atom   0Fe   basis set group =>   1
Atom   1N    basis set group =>   2
Atom   2C    basis set group =>   3
Atom   3C    basis set group =>   3
Atom   4C    basis set group =>   3
Atom   5C    basis set group =>   3
Atom   6H    basis set group =>   4
Atom   7C    basis set group =>   3
Atom   8H    basis set group =>   4
Atom   9H    basis set group =>   4
Atom  10H    basis set group =>   4
Atom  11C    basis set group =>   3
Atom  12H    basis set group =>   4
Atom  13N    basis set group =>   2
Atom  14C    basis set group =>   3
Atom  15C    basis set group =>   3
Atom  16C    basis set group =>   3
Atom  17C    basis set group =>   3
Atom  18H    basis set group =>   4
Atom  19C    basis set group =>   3
Atom  20H    basis set group =>   4
Atom  21C    basis set group =>   3
Atom  22H    basis set group =>   4
Atom  23N    basis set group =>   2
Atom  24C    basis set group =>   3
Atom  25C    basis set group =>   3
Atom  26C    basis set group =>   3
Atom  27C    basis set group =>   3
Atom  28H    basis set group =>   4
Atom  29C    basis set group =>   3
Atom  30H    basis set group =>   4
Atom  31H    basis set group =>   4
Atom  32H    basis set group =>   4
Atom  33C    basis set group =>   3
Atom  34H    basis set group =>   4
Atom  35N    basis set group =>   2
Atom  36C    basis set group =>   3
Atom  37C    basis set group =>   3
Atom  38C    basis set group =>   3
Atom  39C    basis set group =>   3
Atom  40H    basis set group =>   4
Atom  41C    basis set group =>   3
Atom  42H    basis set group =>   4
Atom  43C    basis set group =>   3
Atom  44H    basis set group =>   4
Atom  45N    basis set group =>   2
Atom  46C    basis set group =>   3
Atom  47C    basis set group =>   3
Atom  48C    basis set group =>   3
Atom  49C    basis set group =>   3
Atom  50H    basis set group =>   4
Atom  51C    basis set group =>   3
Atom  52H    basis set group =>   4
Atom  53H    basis set group =>   4
Atom  54H    basis set group =>   4
Atom  55C    basis set group =>   3
Atom  56H    basis set group =>   4
Atom  57N    basis set group =>   2
Atom  58C    basis set group =>   3
Atom  59C    basis set group =>   3
Atom  60C    basis set group =>   3
Atom  61C    basis set group =>   3
Atom  62H    basis set group =>   4
Atom  63C    basis set group =>   3
Atom  64H    basis set group =>   4
Atom  65C    basis set group =>   3
Atom  66H    basis set group =>   4
Atom  67N    basis set group =>   2
Atom  68O    basis set group =>   5
Atom  69O    basis set group =>   5
Atom  70N    basis set group =>   2
Atom  71O    basis set group =>   5
Atom  72O    basis set group =>   5
Atom  73N    basis set group =>   2
Atom  74O    basis set group =>   5
Atom  75O    basis set group =>   5
Atom  76H    basis set group =>   4
Atom  77H    basis set group =>   4
Atom  78H    basis set group =>   4


           ************************************************************
           *        Program running with 8 parallel MPI-processes     *
           *              working on a common directory               *
           ************************************************************
------------------------------------------------------------------------------
                           ORCA GTO INTEGRAL CALCULATION
                           -- RI-GTO INTEGRALS CHOSEN --
------------------------------------------------------------------------------
------------------------------------------------------------------------------
                   ___                                                        
                  /   \      - P O W E R E D   B Y -                         
                 /     \                                                     
                 |  |  |   _    _      __       _____    __    __             
                 |  |  |  | |  | |    /  \     |  _  \  |  |  /  |          
                  \  \/   | |  | |   /    \    | | | |  |  | /  /          
                 / \  \   | |__| |  /  /\  \   | |_| |  |  |/  /          
                |  |  |   |  __  | /  /__\  \  |    /   |      \           
                |  |  |   | |  | | |   __   |  |    \   |  |\   \          
                \     /   | |  | | |  |  |  |  | |\  \  |  | \   \       
                 \___/    |_|  |_| |__|  |__|  |_| \__\ |__|  \__/        
                                                                              
                      - O R C A' S   B I G   F R I E N D -                    
                                      &                                       
                       - I N T E G R A L  F E E D E R -                       
                                                                              
 v1 FN, 2020, v2 2021                                                         
------------------------------------------------------------------------------


Reading SHARK input file FeC_4_B2GPPLYP_def2SVP.SHARKINP.tmp ... ok
----------------------
SHARK INTEGRAL PACKAGE
----------------------

Number of atoms                             ...     79
Number of basis functions                   ...    880
Number of shells                            ...    398
Maximum angular momentum                    ...      3
Integral batch strategy                     ... SHARK/LIBINT Hybrid
RI-J (if used) integral strategy            ... SPLIT-RIJ (Revised 2003 algorithm where possible)
Printlevel                                  ...      1
Contraction scheme used                     ... SEGMENTED contraction
Coulomb Range Separation                    ... NOT USED
Exchange Range Separation                   ... NOT USED
Finite Nucleus Model                        ... NOT USED
Auxiliary Coulomb fitting basis             ... AVAILABLE
   # of basis functions in Aux-J            ...   2885
   # of shells in Aux-J                     ...    923
   Maximum angular momentum in Aux-J        ...      4
Auxiliary J/K fitting basis                 ... NOT available
Auxiliary Correlation fitting basis         ... AVAILABLE
   # of basis functions in Aux-C            ...   2969
   # of shells in Aux-C                     ...   1011
   Maximum angular momentum in Aux-C        ...      5
Auxiliary 'external' fitting basis          ... NOT available
Integral threshold                          ...     2.500000e-11
Primitive cut-off                           ...     2.500000e-12
Primitive pair pre-selection threshold      ...     2.500000e-12

Calculating pre-screening integrals         ... done (  0.1 sec) Dimension = 398
Organizing shell pair data                  ... done (  0.2 sec)
Shell pair information
Total number of shell pairs                 ...     79401
Shell pairs after pre-screening             ...     48676
Total number of primitive shell pairs       ...    302260
Primitive shell pairs kept                  ...    106083
          la=0 lb=0:  14275 shell pairs
          la=1 lb=0:  18072 shell pairs
          la=1 lb=1:   5821 shell pairs
          la=2 lb=0:   5905 shell pairs
          la=2 lb=1:   3814 shell pairs
          la=2 lb=2:    537 shell pairs
          la=3 lb=0:    133 shell pairs
          la=3 lb=1:     89 shell pairs
          la=3 lb=2:     29 shell pairs
          la=3 lb=3:      1 shell pairs

Calculating one electron integrals          ... done (  0.1 sec)
Calculating RI/J V-Matrix + Cholesky decomp.... done (  0.4 sec)
Calculating RI/C V-Matrix + Cholesky decomp.... done (  0.4 sec)
Calculating Nuclear repulsion               ... done (  0.0 sec) ENN=   8281.107286528508 Eh

SHARK setup successfully completed in   1.5 seconds

Maximum memory used throughout the entire GTOINT-calculation: 87.7 MB


           ************************************************************
           *        Program running with 8 parallel MPI-processes     *
           *              working on a common directory               *
           ************************************************************
-------------------------------------------------------------------------------
                                 ORCA SCF
-------------------------------------------------------------------------------

------------
SCF SETTINGS
------------
Hamiltonian:
 Density Functional     Method          .... DFT(GTOs)
 Exchange Functional    Exchange        .... B88
   X-Alpha parameter    XAlpha          ....  0.666667
   Becke's b parameter  XBeta           ....  0.004200
 Correlation Functional Correlation     .... LYP
 LDA part of GGA corr.  LDAOpt          .... VWN-3
 Gradients option       PostSCFGGA      .... off
 Hybrid DFT is turned on
   Fraction HF Exchange ScalHFX         ....  0.650000
   Scaling of DF-GGA-X  ScalDFX         ....  0.350000
   Scaling of DF-GGA-C  ScalDFC         ....  0.640000
   Scaling of DF-LDA-C  ScalLDAC        ....  0.640000
   Perturbative correction              ....  0.360000
   Density functional embedding theory  .... OFF
 RI-approximation to the Coulomb term is turned on
   Number of AuxJ basis functions       .... 2885
   RIJ-COSX (HFX calculated with COS-X)).... on


General Settings:
 Integral files         IntName         .... FeC_4_B2GPPLYP_def2SVP
 Hartree-Fock type      HFTyp           .... RHF
 Total Charge           Charge          ....    2
 Multiplicity           Mult            ....    1
 Number of Electrons    NEL             ....  378
 Basis Dimension        Dim             ....  880
 Nuclear Repulsion      ENuc            ....   8281.1072865285 Eh

Convergence Acceleration:
 DIIS                   CNVDIIS         .... on
   Start iteration      DIISMaxIt       ....    12
   Startup error        DIISStart       ....  0.200000
   # of expansion vecs  DIISMaxEq       ....     5
   Bias factor          DIISBfac        ....   1.050
   Max. coefficient     DIISMaxC        ....  10.000
 Trust-Rad. Augm. Hess. CNVTRAH         .... auto
   Auto Start mean grad. ratio tolernc. ....  1.125000
   Auto Start start iteration           ....    20
   Auto Start num. interpolation iter.  ....    10
   Max. Number of Micro iterations      ....    16
   Max. Number of Macro iterations      .... Maxiter - #DIIS iter
   Number of Davidson start vectors     ....     2
   Converg. threshold I  (grad. norm)   ....   1.000e-05
   Converg. threshold II (energy diff.) ....   1.000e-08
   Grad. Scal. Fac. for Micro threshold ....   0.100
   Minimum threshold for Micro iter.    ....   0.010
   NR start threshold (gradient norm)   ....   0.001
   Initial trust radius                 ....   0.400
   Minimum AH scaling param. (alpha)    ....   1.000
   Maximum AH scaling param. (alpha)    .... 1000.000
   Orbital update algorithm             .... Taylor
   White noise on init. David. guess    .... on
   Maximum white noise                  ....   0.010
   Quad. conv. algorithm                .... NR
 SOSCF                  CNVSOSCF        .... off
 Level Shifting         CNVShift        .... on
   Level shift para.    LevelShift      ....    0.2500
   Turn off err/grad.   ShiftErr        ....    0.0010
 Zerner damping         CNVZerner       .... off
 Static damping         CNVDamp         .... on
   Fraction old density DampFac         ....    0.7000
   Max. Damping (<1)    DampMax         ....    0.9800
   Min. Damping (>=0)   DampMin         ....    0.0000
   Turn off err/grad.   DampErr         ....    0.1000
 Fernandez-Rico         CNVRico         .... off

SCF Procedure:
 Maximum # iterations   MaxIter         ....   125
 SCF integral mode      SCFMode         .... Direct
   Integral package                     .... SHARK and LIBINT hybrid scheme
 Reset frequency        DirectResetFreq ....    20
 Integral Threshold     Thresh          ....  2.500e-11 Eh
 Primitive CutOff       TCut            ....  2.500e-12 Eh

Convergence Tolerance:
 Convergence Check Mode ConvCheckMode   .... Total+1el-Energy
 Convergence forced     ConvForced      .... 1
 Energy Change          TolE            ....  1.000e-08 Eh
 1-El. energy change                    ....  1.000e-05 Eh
 DIIS Error             TolErr          ....  5.000e-07


Diagonalization of the overlap matrix:
Smallest eigenvalue                        ... 2.130e-04
Time for diagonalization                   ...    0.136 sec
Threshold for overlap eigenvalues          ... 1.000e-08
Number of eigenvalues below threshold      ... 0
Time for construction of square roots      ...    0.075 sec
Total time needed                          ...    0.213 sec

Time for model grid setup =    0.859 sec

------------------------------
INITIAL GUESS: MODEL POTENTIAL
------------------------------
Loading Hartree-Fock densities                     ... done
Calculating cut-offs                               ... done
Initializing the effective Hamiltonian             ... done
Setting up the integral package (SHARK)            ... done
Starting the Coulomb interaction                   ... done (   0.9 sec)
Reading the grid                                   ... done
Mapping shells                                     ... done
Starting the XC term evaluation                    ... done (   0.3 sec)
  promolecular density results
     # of electrons  =    379.977145176
     EX              =   -356.119702136
     EC              =     -1.697810053
     EX+EC           =   -357.817512190
Transforming the Hamiltonian                       ... done (   0.1 sec)
Diagonalizing the Hamiltonian                      ... done (   0.1 sec)
Back transforming the eigenvectors                 ... done (   0.0 sec)
Now organizing SCF variables                       ... done
                      ------------------
                      INITIAL GUESS DONE (   2.3 sec)
                      ------------------
-------------------
DFT GRID GENERATION
-------------------

General Integration Accuracy     IntAcc      ... 4.388
Radial Grid Type                 RadialGrid  ... OptM3 with GC (2021)
Angular Grid (max. ang.)         AngularGrid ... 4 (Lebedev-302)
Angular grid pruning method      GridPruning ... 4 (adaptive)
Weight generation scheme         WeightScheme... Becke
Basis function cutoff            BFCut       ... 1.0000e-11
Integration weight cutoff        WCut        ... 1.0000e-14
Angular grids for H and He will be reduced by one unit
Partially contracted basis set               ... off
Rotationally invariant grid construction     ... off

Total number of grid points                  ...   396920
Total number of batches                      ...     6241
Average number of points per batch           ...       63
Average number of grid points per atom       ...     5024
Time for grid setup =    3.275 sec

--------------------
COSX GRID GENERATION
--------------------

GRIDX 1
-------
General Integration Accuracy     IntAcc      ... 3.816
Radial Grid Type                 RadialGrid  ... OptM3 with GC (2021)
Angular Grid (max. ang.)         AngularGrid ... 1 (Lebedev-50)
Angular grid pruning method      GridPruning ... 4 (adaptive)
Weight generation scheme         WeightScheme... Becke
Basis function cutoff            BFCut       ... 1.0000e-11
Integration weight cutoff        WCut        ... 1.0000e-14
Angular grids for H and He will be reduced by one unit
Partially contracted basis set               ... on
Rotationally invariant grid construction     ... off

Total number of grid points                  ...    49926
Total number of batches                      ...      811
Average number of points per batch           ...       61
Average number of grid points per atom       ...      632
UseSFitting                                  ... on

GRIDX 2
-------
General Integration Accuracy     IntAcc      ... 4.020
Radial Grid Type                 RadialGrid  ... OptM3 with GC (2021)
Angular Grid (max. ang.)         AngularGrid ... 2 (Lebedev-110)
Angular grid pruning method      GridPruning ... 4 (adaptive)
Weight generation scheme         WeightScheme... Becke
Basis function cutoff            BFCut       ... 1.0000e-11
Integration weight cutoff        WCut        ... 1.0000e-14
Angular grids for H and He will be reduced by one unit
Partially contracted basis set               ... on
Rotationally invariant grid construction     ... off

Total number of grid points                  ...   108867
Total number of batches                      ...     1738
Average number of points per batch           ...       62
Average number of grid points per atom       ...     1378
UseSFitting                                  ... on

GRIDX 3
-------
General Integration Accuracy     IntAcc      ... 4.338
Radial Grid Type                 RadialGrid  ... OptM3 with GC (2021)
Angular Grid (max. ang.)         AngularGrid ... 3 (Lebedev-194)
Angular grid pruning method      GridPruning ... 4 (adaptive)
Weight generation scheme         WeightScheme... Becke
Basis function cutoff            BFCut       ... 1.0000e-11
Integration weight cutoff        WCut        ... 1.0000e-14
Angular grids for H and He will be reduced by one unit
Partially contracted basis set               ... on
Rotationally invariant grid construction     ... off

Total number of grid points                  ...   237051
Total number of batches                      ...     3744
Average number of points per batch           ...       63
Average number of grid points per atom       ...     3001
UseSFitting                                  ... on

Time for X-Grid setup             =    3.427 sec


--------------------
CPCM SOLVATION MODEL
--------------------
CPCM parameters:
  Epsilon                                         ...      35.6880
  Refrac                                          ...       1.3442
  Rsolv                                           ...       1.3000
  Surface type                                    ... GAUSSIAN VDW
  Epsilon function type                           ...         CPCM
Solvent:                                     ... ACETONITRILE
SMD-CDS solvent descriptors:
  Soln                                       ...    1.3442
  Soln25                                     ...    1.3416
  Sola                                       ...    0.0700
  Solb                                       ...    0.3200
  Solg                                       ...   41.2500
  Solc                                       ...    0.0000
  Solh                                       ...    0.0000
Radii:
 Radius for Fe used is    3.6661 Bohr (=   1.9400 Ang.)
 Radius for N  used is    3.5716 Bohr (=   1.8900 Ang.)
 Radius for C  used is    3.4960 Bohr (=   1.8500 Ang.)
 Radius for H  used is    2.2677 Bohr (=   1.2000 Ang.)
 Radius for O  used is    4.0969 Bohr (=   2.1680 Ang.)
Calculating surface                               ...        done! (  0.0s)
GEPOL surface points                              ...         4221
GEPOL Volume                                      ...    4965.6842
GEPOL Surface-area                                ...    2354.1384
Calculating surface distance matrix               ...        done! (  0.1s)
Performing Cholesky decomposition & store         ...        done! (  0.5s)
Overall time for CPCM initialization              ...                 0.6s
--------------
SCF ITERATIONS
--------------
ITER       Energy         Delta-E        Max-DP      RMS-DP      [F,P]     Damp
               ***  Starting incremental Fock matrix formation  ***
  0  -3585.8968244152   0.000000000000 0.08630623  0.00135154  0.2328261 0.7000
  1  -3586.3569292193  -0.460104804077 0.05736660  0.00099944  0.1078728 0.7000
                               ***Turning on DIIS***
  2  -3586.5890346623  -0.232105442977 0.19914862  0.00227917  0.0718791 0.0000
  3  -3587.0572334835  -0.468198821227 0.03901324  0.00039334  0.0534832 0.0000
  4  -3587.1072033235  -0.049969839998 0.03529800  0.00021504  0.0284696 0.0000
  5  -3587.1164898424  -0.009286518948 0.02990715  0.00013767  0.0206574 0.0000
  6  -3587.1204734730  -0.003983630587 0.01482420  0.00008249  0.0128685 0.0000
  7  -3587.1218502253  -0.001376752286 0.00848392  0.00004894  0.0063831 0.0000
  8  -3587.1223874293  -0.000537203967 0.00259499  0.00002294  0.0014263 0.0000
  9  -3587.1225227203  -0.000135291038 0.00186458  0.00002056  0.0007728 0.0000
               *** Restarting incremental Fock matrix formation ***
                                   *** Resetting DIIS ***
 10  -3587.1224512083   0.000071511981 0.00088878  0.00001765  0.0004765 0.0000
 11  -3587.1224558115  -0.000004603145 0.00033030  0.00000244  0.0003508 0.0000
 12  -3587.1224568669  -0.000001055390 0.00043615  0.00000201  0.0002890 0.0000
 13  -3587.1224575052  -0.000000638358 0.00037098  0.00000104  0.0002029 0.0000
 14  -3587.1224577416  -0.000000236387 0.00033004  0.00000096  0.0001367 0.0000
 15  -3587.1224579198  -0.000000178194 0.00023061  0.00000058  0.0000731 0.0000
 16  -3587.1224578890   0.000000030814 0.00012600  0.00000037  0.0000359 0.0000
 17  -3587.1224579850  -0.000000095972 0.00007697  0.00000022  0.0000292 0.0000
 18  -3587.1224579050   0.000000079920 0.00003107  0.00000010  0.0000235 0.0000
 19  -3587.1224578525   0.000000052561 0.00003163  0.00000011  0.0000202 0.0000
 20  -3587.1224579060  -0.000000053574 0.00002492  0.00000008  0.0000162 0.0000
 21  -3587.1224579605  -0.000000054425 0.00003191  0.00000010  0.0000130 0.0000
 22  -3587.1224579518   0.000000008708 0.00002084  0.00000007  0.0000088 0.0000
 23  -3587.1224579677  -0.000000015921 0.00003068  0.00000010  0.0000061 0.0000
 24  -3587.1224579845  -0.000000016812 0.00001401  0.00000004  0.0000036 0.0000
 25  -3587.1224580323  -0.000000047762 0.00000705  0.00000002  0.0000023 0.0000
 26  -3587.1224580378  -0.000000005541 0.00000357  0.00000001  0.0000016 0.0000
 27  -3587.1224580887  -0.000000050871 0.00000128  0.00000001  0.0000011 0.0000
                            ***DIIS convergence achieved***

               *****************************************************
               *                     SUCCESS                       *
               *           SCF CONVERGED AFTER  28 CYCLES          *
               *****************************************************

Old exchange energy                            =   -232.956103725 Eh
New exchange energy                            =   -232.956369571 Eh
Exchange energy change after final integration =     -0.000265846 Eh
Total energy after final integration           =  -3587.122723982 Eh
Final COS-X integration done in                =    43.674 sec

SMD CDS free energy correction energy :                -6.61805     Kcal/mol
Total Energy after SMD CDS correction =             -3587.133270512 Eh

----------------
TOTAL SCF ENERGY
----------------

Total Energy       :        -3587.13327051 Eh          -97610.85873 eV

Components:
Nuclear Repulsion  :         8281.10728653 Eh          225340.38535 eV
Electronic Energy  :       -11868.24055704 Eh         -322951.24408 eV
One Electron Energy:       -21330.78493652 Eh         -580440.16713 eV
Two Electron Energy:         9462.54437948 Eh          257488.92305 eV
Max COSX asymmetry :            0.00002680 Eh               0.00073 eV
CPCM Dielectric    :           -0.28673963 Eh              -7.80258 eV
SMD CDS (Gcds)     :           -0.01054653 Eh              -0.28699 eV

Virial components:
Potential Energy   :        -7155.29655438 Eh         -194705.51788 eV
Kinetic Energy     :         3568.16328386 Eh           97094.65915 eV
Virial Ratio       :            2.00531646


DFT components:
N(Alpha)           :      189.000171830727 electrons
N(Beta)            :      189.000171830727 electrons
N(Total)           :      378.000343661455 electrons
E(X)               :     -125.861116795007 Eh       
E(C)               :       -8.615753679326 Eh       
E(XC)              :     -134.476870474333 Eh       
DFET-embed. en.    :        0.000000000000 Eh       
CPCM Solvation Model Properties:
Surface-charge          :           -2.03733679
Charge-correction       :            0.00660408 Eh               0.17971 eV
Free-energy (cav+disp)  :           -0.01054653 Eh              -0.28699 eV

---------------
SCF CONVERGENCE
---------------

  Last Energy change         ...   -4.7541e-08  Tolerance :   1.0000e-08
  Last MAX-Density change    ...    0.0000e+00  Tolerance :   1.0000e-07
  Last RMS-Density change    ...    0.0000e+00  Tolerance :   5.0000e-09
  Last DIIS Error            ...    7.3879e-07  Tolerance :   5.0000e-07

             **** THE GBW FILE WAS UPDATED (FeC_4_B2GPPLYP_def2SVP.gbw) ****
             **** DENSITY FeC_4_B2GPPLYP_def2SVP.scfp WAS UPDATED ****
             **** ENERGY FILE WAS UPDATED (FeC_4_B2GPPLYP_def2SVP.en.tmp) ****
             **** THE GBW FILE WAS UPDATED (FeC_4_B2GPPLYP_def2SVP.gbw) ****
             **** DENSITY FeC_4_B2GPPLYP_def2SVP.scfp WAS UPDATED ****
----------------
ORBITAL ENERGIES
----------------

  NO   OCC          E(Eh)            E(eV) 
   0   2.0000    -259.045882     -7048.9968 
   1   2.0000     -31.076239      -845.6275 
   2   2.0000     -26.732580      -727.4305 
   3   2.0000     -26.732270      -727.4221 
   4   2.0000     -26.730435      -727.3721 
   5   2.0000     -19.991865      -544.0063 
   6   2.0000     -19.991202      -543.9883 
   7   2.0000     -19.991012      -543.9831 
   8   2.0000     -19.990886      -543.9797 
   9   2.0000     -19.990734      -543.9755 
  10   2.0000     -19.990456      -543.9680 
  11   2.0000     -15.307940      -416.5502 
  12   2.0000     -15.307315      -416.5332 
  13   2.0000     -15.307223      -416.5307 
  14   2.0000     -15.090261      -410.6269 
  15   2.0000     -15.089900      -410.6170 
  16   2.0000     -15.089008      -410.5928 
  17   2.0000     -15.088733      -410.5853 
  18   2.0000     -15.088616      -410.5821 
  19   2.0000     -15.088099      -410.5681 
  20   2.0000     -10.881901      -296.1116 
  21   2.0000     -10.881414      -296.0983 
  22   2.0000     -10.880990      -296.0868 
  23   2.0000     -10.863885      -295.6213 
  24   2.0000     -10.863007      -295.5974 
  25   2.0000     -10.862464      -295.5827 
  26   2.0000     -10.860666      -295.5337 
  27   2.0000     -10.860204      -295.5212 
  28   2.0000     -10.859710      -295.5077 
  29   2.0000     -10.857005      -295.4341 
  30   2.0000     -10.855889      -295.4038 
  31   2.0000     -10.855801      -295.4014 
  32   2.0000     -10.855673      -295.3979 
  33   2.0000     -10.855244      -295.3862 
  34   2.0000     -10.854846      -295.3754 
  35   2.0000     -10.829906      -294.6967 
  36   2.0000     -10.829191      -294.6773 
  37   2.0000     -10.828891      -294.6691 
  38   2.0000     -10.826215      -294.5963 
  39   2.0000     -10.826053      -294.5919 
  40   2.0000     -10.825589      -294.5793 
  41   2.0000     -10.825428      -294.5749 
  42   2.0000     -10.825215      -294.5691 
  43   2.0000     -10.824525      -294.5503 
  44   2.0000     -10.823291      -294.5167 
  45   2.0000     -10.822421      -294.4930 
  46   2.0000     -10.822347      -294.4910 
  47   2.0000     -10.821094      -294.4569 
  48   2.0000     -10.820618      -294.4440 
  49   2.0000     -10.819749      -294.4203 
  50   2.0000     -10.819719      -294.4195 
  51   2.0000     -10.819357      -294.4097 
  52   2.0000     -10.818830      -294.3953 
  53   2.0000     -10.813777      -294.2578 
  54   2.0000     -10.813676      -294.2551 
  55   2.0000     -10.813052      -294.2381 
  56   2.0000      -3.802688      -103.4764 
  57   2.0000      -2.469736       -67.2049 
  58   2.0000      -2.468209       -67.1634 
  59   2.0000      -2.463729       -67.0415 
  60   2.0000      -1.451441       -39.4957 
  61   2.0000      -1.450868       -39.4801 
  62   2.0000      -1.450689       -39.4753 
  63   2.0000      -1.256887       -34.2016 
  64   2.0000      -1.256214       -34.1833 
  65   2.0000      -1.256130       -34.1810 
  66   2.0000      -1.185079       -32.2476 
  67   2.0000      -1.174989       -31.9731 
  68   2.0000      -1.173210       -31.9247 
  69   2.0000      -1.141715       -31.0676 
  70   2.0000      -1.141074       -31.0502 
  71   2.0000      -1.139739       -31.0139 
  72   2.0000      -1.061221       -28.8773 
  73   2.0000      -1.060632       -28.8613 
  74   2.0000      -1.060168       -28.8486 
  75   2.0000      -0.989994       -26.9391 
  76   2.0000      -0.988664       -26.9029 
  77   2.0000      -0.987331       -26.8667 
  78   2.0000      -0.979508       -26.6538 
  79   2.0000      -0.978562       -26.6280 
  80   2.0000      -0.977982       -26.6122 
  81   2.0000      -0.957410       -26.0525 
  82   2.0000      -0.957285       -26.0490 
  83   2.0000      -0.956876       -26.0379 
  84   2.0000      -0.922238       -25.0954 
  85   2.0000      -0.921360       -25.0715 
  86   2.0000      -0.918678       -24.9985 
  87   2.0000      -0.855842       -23.2887 
  88   2.0000      -0.852315       -23.1927 
  89   2.0000      -0.851414       -23.1681 
  90   2.0000      -0.836625       -22.7657 
  91   2.0000      -0.834383       -22.7047 
  92   2.0000      -0.833103       -22.6699 
  93   2.0000      -0.794540       -21.6205 
  94   2.0000      -0.794100       -21.6086 
  95   2.0000      -0.793719       -21.5982 
  96   2.0000      -0.770970       -20.9792 
  97   2.0000      -0.766264       -20.8511 
  98   2.0000      -0.765194       -20.8220 
  99   2.0000      -0.750120       -20.4118 
 100   2.0000      -0.748526       -20.3684 
 101   2.0000      -0.737330       -20.0638 
 102   2.0000      -0.718956       -19.5638 
 103   2.0000      -0.716375       -19.4936 
 104   2.0000      -0.715602       -19.4725 
 105   2.0000      -0.694926       -18.9099 
 106   2.0000      -0.692865       -18.8538 
 107   2.0000      -0.692208       -18.8359 
 108   2.0000      -0.680475       -18.5167 
 109   2.0000      -0.666230       -18.1290 
 110   2.0000      -0.664065       -18.0701 
 111   2.0000      -0.662325       -18.0228 
 112   2.0000      -0.662131       -18.0175 
 113   2.0000      -0.661828       -18.0093 
 114   2.0000      -0.653048       -17.7703 
 115   2.0000      -0.650960       -17.7135 
 116   2.0000      -0.650103       -17.6902 
 117   2.0000      -0.636660       -17.3244 
 118   2.0000      -0.632221       -17.2036 
 119   2.0000      -0.631755       -17.1909 
 120   2.0000      -0.625506       -17.0209 
 121   2.0000      -0.625067       -17.0090 
 122   2.0000      -0.621059       -16.8999 
 123   2.0000      -0.610693       -16.6178 
 124   2.0000      -0.608847       -16.5676 
 125   2.0000      -0.607626       -16.5343 
 126   2.0000      -0.599949       -16.3254 
 127   2.0000      -0.598385       -16.2829 
 128   2.0000      -0.597447       -16.2574 
 129   2.0000      -0.594090       -16.1660 
 130   2.0000      -0.593026       -16.1370 
 131   2.0000      -0.587589       -15.9891 
 132   2.0000      -0.572285       -15.5727 
 133   2.0000      -0.567971       -15.4553 
 134   2.0000      -0.562962       -15.3190 
 135   2.0000      -0.562498       -15.3064 
 136   2.0000      -0.558924       -15.2091 
 137   2.0000      -0.556369       -15.1396 
 138   2.0000      -0.554152       -15.0792 
 139   2.0000      -0.548680       -14.9303 
 140   2.0000      -0.541582       -14.7372 
 141   2.0000      -0.536069       -14.5872 
 142   2.0000      -0.532160       -14.4808 
 143   2.0000      -0.523264       -14.2387 
 144   2.0000      -0.508539       -13.8381 
 145   2.0000      -0.505208       -13.7474 
 146   2.0000      -0.499112       -13.5815 
 147   2.0000      -0.494907       -13.4671 
 148   2.0000      -0.493539       -13.4299 
 149   2.0000      -0.492824       -13.4104 
 150   2.0000      -0.489560       -13.3216 
 151   2.0000      -0.488395       -13.2899 
 152   2.0000      -0.485697       -13.2165 
 153   2.0000      -0.484707       -13.1896 
 154   2.0000      -0.482311       -13.1244 
 155   2.0000      -0.474002       -12.8982 
 156   2.0000      -0.467086       -12.7100 
 157   2.0000      -0.462461       -12.5842 
 158   2.0000      -0.456468       -12.4211 
 159   2.0000      -0.448120       -12.1940 
 160   2.0000      -0.442744       -12.0477 
 161   2.0000      -0.439959       -11.9719 
 162   2.0000      -0.436846       -11.8872 
 163   2.0000      -0.432236       -11.7617 
 164   2.0000      -0.431910       -11.7529 
 165   2.0000      -0.430793       -11.7225 
 166   2.0000      -0.429880       -11.6976 
 167   2.0000      -0.425525       -11.5791 
 168   2.0000      -0.423930       -11.5357 
 169   2.0000      -0.423100       -11.5131 
 170   2.0000      -0.422465       -11.4959 
 171   2.0000      -0.409535       -11.1440 
 172   2.0000      -0.409043       -11.1306 
 173   2.0000      -0.408553       -11.1173 
 174   2.0000      -0.407250       -11.0818 
 175   2.0000      -0.393601       -10.7104 
 176   2.0000      -0.377163       -10.2631 
 177   2.0000      -0.372169       -10.1272 
 178   2.0000      -0.360393        -9.8068 
 179   2.0000      -0.356532        -9.7017 
 180   2.0000      -0.353129        -9.6091 
 181   2.0000      -0.350388        -9.5345 
 182   2.0000      -0.346368        -9.4252 
 183   2.0000      -0.342626        -9.3233 
 184   2.0000      -0.340940        -9.2774 
 185   2.0000      -0.339228        -9.2309 
 186   2.0000      -0.315472        -8.5844 
 187   2.0000      -0.313204        -8.5227 
 188   2.0000      -0.309192        -8.4135 
 189   0.0000      -0.043669        -1.1883 
 190   0.0000      -0.039489        -1.0746 
 191   0.0000      -0.038234        -1.0404 
 192   0.0000      -0.029020        -0.7897 
 193   0.0000      -0.026513        -0.7214 
 194   0.0000      -0.025451        -0.6926 
 195   0.0000       0.018900         0.5143 
 196   0.0000       0.023955         0.6518 
 197   0.0000       0.026123         0.7108 
 198   0.0000       0.043726         1.1898 
 199   0.0000       0.044928         1.2225 
 200   0.0000       0.051231         1.3941 
 201   0.0000       0.072524         1.9735 
 202   0.0000       0.075733         2.0608 
 203   0.0000       0.076740         2.0882 
 204   0.0000       0.096934         2.6377 
 205   0.0000       0.099850         2.7171 
 206   0.0000       0.104058         2.8316 
 207   0.0000       0.109539         2.9807 
 208   0.0000       0.130761         3.5582 
 209   0.0000       0.132505         3.6056 
 210   0.0000       0.139295         3.7904 
 211   0.0000       0.140217         3.8155 
 212   0.0000       0.143415         3.9025 
 213   0.0000       0.149274         4.0619 
 214   0.0000       0.150879         4.1056 
 215   0.0000       0.159063         4.3283 
 216   0.0000       0.160391         4.3645 
 217   0.0000       0.173594         4.7237 
 218   0.0000       0.175938         4.7875 
 219   0.0000       0.184093         5.0094 
 220   0.0000       0.184599         5.0232 
 221   0.0000       0.187853         5.1118 
 222   0.0000       0.191650         5.2151 
 223   0.0000       0.195401         5.3171 
 224   0.0000       0.198695         5.4068 
 225   0.0000       0.200315         5.4509 
 226   0.0000       0.201826         5.4920 
 227   0.0000       0.204523         5.5653 
 228   0.0000       0.211603         5.7580 
 229   0.0000       0.211935         5.7670 
 230   0.0000       0.214734         5.8432 
 231   0.0000       0.218287         5.9399 
 232   0.0000       0.220193         5.9918 
 233   0.0000       0.223833         6.0908 
 234   0.0000       0.227953         6.2029 
 235   0.0000       0.232596         6.3293 
 236   0.0000       0.236977         6.4485 
 237   0.0000       0.241071         6.5599 
 238   0.0000       0.245303         6.6750 
 239   0.0000       0.249644         6.7932 
 240   0.0000       0.251969         6.8564 
 241   0.0000       0.255835         6.9616 
 242   0.0000       0.261526         7.1165 
 243   0.0000       0.267416         7.2767 
 244   0.0000       0.271253         7.3812 
 245   0.0000       0.276277         7.5179 
 246   0.0000       0.283076         7.7029 
 247   0.0000       0.298153         8.1131 
 248   0.0000       0.302267         8.2251 
 249   0.0000       0.308412         8.3923 
 250   0.0000       0.314838         8.5672 
 251   0.0000       0.318678         8.6717 
 252   0.0000       0.320641         8.7251 
 253   0.0000       0.326251         8.8777 
 254   0.0000       0.328848         8.9484 
 255   0.0000       0.332684         9.0528 
 256   0.0000       0.337300         9.1784 
 257   0.0000       0.341243         9.2857 
 258   0.0000       0.346161         9.4195 
[...]
   188a -> 193a  :     0.157647 

STATE 37:  E=   0.163722 au      4.455 eV    35932.8 cm**-1 <S**2> =   0.000000
   175a -> 189a  :     0.039687 
   176a -> 189a  :     0.070611 
   176a -> 190a  :     0.030815 
   178a -> 190a  :     0.020420 
   178a -> 191a  :     0.011381 
   179a -> 189a  :     0.013091 
   183a -> 189a  :     0.026428 
   183a -> 193a  :     0.010772 
   184a -> 189a  :     0.051667 
   185a -> 189a  :     0.266317 
   185a -> 190a  :     0.014913 
   185a -> 191a  :     0.015807 
   185a -> 192a  :     0.016382 
   185a -> 193a  :     0.033529 
   185a -> 194a  :     0.012359 
   187a -> 190a  :     0.027034 
   188a -> 192a  :     0.016744 
   188a -> 193a  :     0.014812 
   188a -> 195a  :     0.026317 
   188a -> 197a  :     0.013231 

STATE 38:  E=   0.157544 au      4.287 eV    34577.0 cm**-1 <S**2> =   0.000000
   176a -> 189a  :     0.164641 
   176a -> 190a  :     0.048334 
   177a -> 191a  :     0.013014 
   178a -> 189a  :     0.031917 
   178a -> 190a  :     0.011544 
   179a -> 189a  :     0.035108 
   180a -> 190a  :     0.013684 
   180a -> 191a  :     0.014119 
   182a -> 189a  :     0.049721 
   182a -> 193a  :     0.012235 
   183a -> 189a  :     0.095535 
   183a -> 193a  :     0.013806 
   185a -> 189a  :     0.072786 
   185a -> 191a  :     0.024284 
   185a -> 192a  :     0.014028 
   185a -> 193a  :     0.027013 
   186a -> 189a  :     0.020273 
   188a -> 193a  :     0.055494 

STATE 39:  E=   0.140565 au      3.825 eV    30850.5 cm**-1 <S**2> =   0.000000
   174a -> 190a  :     0.014229 
   175a -> 189a  :     0.025543 
   175a -> 190a  :     0.012421 
   176a -> 189a  :     0.116626 
   176a -> 190a  :     0.062581 
   176a -> 194a  :     0.018529 
   178a -> 189a  :     0.023991 
   178a -> 190a  :     0.077526 
   180a -> 190a  :     0.037126 
   181a -> 189a  :     0.026361 
   182a -> 189a  :     0.043220 
   182a -> 190a  :     0.013335 
   183a -> 189a  :     0.056841 
   184a -> 189a  :     0.056497 
   184a -> 190a  :     0.036144 
   185a -> 189a  :     0.021091 
   185a -> 193a  :     0.013665 
   186a -> 190a  :     0.014745 
   186a -> 191a  :     0.014777 
   186a -> 193a  :     0.010446 
   187a -> 190a  :     0.017563 
   187a -> 196a  :     0.012517 

STATE 40:  E=   0.172567 au      4.696 eV    37874.0 cm**-1 <S**2> =   0.000000
   176a -> 190a  :     0.023534 
   178a -> 190a  :     0.010838 
   179a -> 189a  :     0.020228 
   180a -> 190a  :     0.051040 
   181a -> 189a  :     0.029977 
   181a -> 190a  :     0.010991 
   182a -> 189a  :     0.038185 
   182a -> 190a  :     0.061168 
   183a -> 189a  :     0.019404 
   184a -> 189a  :     0.334637 
   184a -> 190a  :     0.054213 
   184a -> 193a  :     0.017293 
   186a -> 193a  :     0.015457 
   187a -> 192a  :     0.014273 
   187a -> 193a  :     0.023024 
   188a -> 193a  :     0.011645 
   188a -> 194a  :     0.066913 


-------------------------
TD-DFT-EXCITATION SPECTRA
-------------------------

Center of mass = (  0.0089, -0.0329,  0.0103)
Calculating the Dipole integrals                  ... done
Transforming integrals                            ... done
Calculating the Linear Momentum integrals         ... done
Transforming integrals                            ... done
Calculating angular momentum integrals            ... done
Transforming integrals                            ... done

-----------------------------------------------------------------------------
         ABSORPTION SPECTRUM VIA TRANSITION ELECTRIC DIPOLE MOMENTS
-----------------------------------------------------------------------------
State   Energy    Wavelength  fosc         T2        TX        TY        TZ  
        (cm-1)      (nm)                 (au**2)    (au)      (au)      (au) 
-----------------------------------------------------------------------------
   1   15512.2    644.7   0.000026596   0.00056   0.02169  -0.00333  -0.00909
   2   15969.4    626.2   0.000011734   0.00024  -0.01492  -0.00145   0.00415
   3   16617.0    601.8   0.000056135   0.00111   0.03112  -0.00237  -0.01175
   4   25873.9    386.5   0.000087690   0.00112  -0.00832  -0.00641   0.03171
   5   26416.5    378.6   0.000108993   0.00136  -0.02355  -0.02771  -0.00600
   6   27551.5    363.0   0.000025237   0.00030   0.00442  -0.01291   0.01074
   7   31722.6    315.2   0.342483482   3.55424   0.86744  -0.93781  -1.38647
   8   32906.4    303.9   0.441736582   4.41936   1.13232   0.86371  -1.54635
   9   32665.9    306.1   0.655703794   6.60828  -2.06380   1.52379  -0.16455
  10   32028.4    312.2   0.007091854   0.07290   0.03285  -0.18285   0.19592
  11   32010.9    312.4   0.004428777   0.04555  -0.17333   0.05604   0.11119
  12   32029.1    312.2   0.005028851   0.05169   0.06181   0.19554  -0.09814
  13   34925.3    286.3   0.025745225   0.24268   0.30619   0.38557   0.01615
  14   34642.3    288.7   0.059295513   0.56350   0.65402  -0.31849  -0.18526
  15   35491.2    281.8   0.028916179   0.26822  -0.51001  -0.06771   0.05940
  16   36676.8    272.7   0.000114871   0.00103  -0.02167   0.00250   0.02356
  17   36646.5    272.9   0.004946171   0.04443   0.19825  -0.00210  -0.07161
  18   36519.5    273.8   0.005352168   0.04825  -0.13139   0.15990   0.07360
  19   31026.9    322.3   0.010563459   0.11208  -0.15881  -0.08693   0.28161
  20   28675.5    348.7   0.016831239   0.19323  -0.05075  -0.17564   0.39976
  21   32814.4    304.7   0.013257208   0.13300   0.15830   0.32853  -0.00357
  22   37880.6    264.0   0.112066649   0.97395   0.63393  -0.75260   0.07530
  23   36695.7    272.5   0.092556850   0.83036   0.70336   0.45474  -0.35898
  24   37688.6    265.3   0.104567870   0.91341   0.44891   0.82399   0.18148
  25   28918.4    345.8   0.046271089   0.52676  -0.23558  -0.27552  -0.62877
  26   27674.1    361.3   0.025512981   0.30350  -0.47972  -0.21132  -0.16946
  27   34748.0    287.8   0.168344369   1.59494  -1.09316  -0.43230   0.46157
  28   31918.0    313.3   0.069887477   0.72084  -0.08602  -0.40787   0.73965
  29   35482.1    281.8   0.067139846   0.62294  -0.33648   0.70964   0.07828
  30   30501.7    327.9   0.100271585   1.08226  -0.34394  -0.81036   0.55433
  31   31629.3    316.2   0.005059632   0.05266  -0.05326   0.20468   0.08907
  32   33859.6    295.3   0.014190264   0.13797   0.30137   0.08644  -0.19918
  33   27702.6    361.0   0.000481994   0.00573  -0.01065  -0.02444  -0.07083
  34   30950.1    323.1   0.001865770   0.01985   0.13946   0.00809  -0.01824
  35   25580.2    390.9   0.048329163   0.62199  -0.46110  -0.25862  -0.58522
  36   40552.7    246.6   0.001370019   0.01112   0.03204   0.02875   0.09628
  37   35932.8    278.3   0.059542354   0.54552  -0.23615   0.61024   0.34259
  38   34577.0    289.2   0.007702043   0.07333   0.21925  -0.12960   0.09202
  39   30850.5    324.1   0.065088359   0.69457   0.09476   0.48554  -0.67070
  40   37874.0    264.0   0.025672933   0.22316   0.32780  -0.25964   0.21974

-----------------------------------------------------------------------------
         ABSORPTION SPECTRUM VIA TRANSITION VELOCITY DIPOLE MOMENTS
-----------------------------------------------------------------------------
State   Energy    Wavelength   fosc        P2         PX        PY        PZ  
        (cm-1)      (nm)                 (au**2)     (au)      (au)      (au) 
-----------------------------------------------------------------------------
   1   15512.2    644.7   0.000058782   0.00001  -0.00133  -0.00128   0.00168
   2   15969.4    626.2   0.000017835   0.00000   0.00081  -0.00054  -0.00100
   3   16617.0    601.8   0.000017034   0.00000  -0.00008  -0.00096  -0.00101
   4   25873.9    386.5   0.000215177   0.00004   0.00090   0.00154  -0.00590
   5   26416.5    378.6   0.000219744   0.00004   0.00387   0.00463   0.00180
   6   27551.5    363.0   0.000020437   0.00000  -0.00037   0.00096  -0.00167
   7   31722.6    315.2   0.377701162   0.08189  -0.12935   0.14090   0.21285
   8   32906.4    303.9   0.485606980   0.10921  -0.17603  -0.13610   0.24435
   9   32665.9    306.1   0.732832361   0.16361   0.32422  -0.24088   0.02160
  10   32028.4    312.2   0.008365631   0.00183  -0.00545   0.02873  -0.03124
  11   32010.9    312.4   0.005215063   0.00114   0.02734  -0.00870  -0.01783
  12   32029.1    312.2   0.005973684   0.00131  -0.00994  -0.03093   0.01589
  13   34925.3    286.3   0.032098477   0.00766  -0.05069  -0.07107  -0.00637
  14   34642.3    288.7   0.075640938   0.01791  -0.11714   0.05537   0.03350
  15   35491.2    281.8   0.036042044   0.00874   0.09225   0.00912  -0.01224
  16   36676.8    272.7   0.000143242   0.00004   0.00551  -0.00221   0.00080
  17   36646.5    272.9   0.005356172   0.00134  -0.03521  -0.00257   0.00974
  18   36519.5    273.8   0.006577014   0.00164   0.02555  -0.02994  -0.00961
  19   31026.9    322.3   0.018195773   0.00386   0.03147   0.01678  -0.05086
  20   28675.5    348.7   0.034662101   0.00679   0.01002   0.03640  -0.07327
  21   32814.4    304.7   0.017731193   0.00398  -0.02783  -0.05659   0.00004
  22   37880.6    264.0   0.129665585   0.03357  -0.11758   0.13983  -0.01384
  23   36695.7    272.5   0.113364420   0.02843  -0.13088  -0.08368   0.06556
  24   37688.6    265.3   0.119480165   0.03078  -0.08278  -0.15127  -0.03223
  25   28918.4    345.8   0.102168534   0.02019   0.04788   0.05454   0.12217
  26   27674.1    361.3   0.054264284   0.01026   0.08781   0.03755   0.03379
  27   34748.0    287.8   0.237001206   0.05628   0.20498   0.08069  -0.08808
  28   31918.0    313.3   0.120308683   0.02624   0.01596   0.07650  -0.14191
  29   35482.1    281.8   0.095727149   0.02321   0.06588  -0.13671  -0.01360
  30   30501.7    327.9   0.187236709   0.03903   0.06465   0.15586  -0.10276
  31   31629.3    316.2   0.009447619   0.00204   0.00909  -0.04136  -0.01579
  32   33859.6    295.3   0.022388102   0.00518  -0.05646  -0.01707   0.04125
  33   27702.6    361.0   0.001151996   0.00022  -0.00027   0.00275   0.01451
  34   30950.1    323.1   0.003342734   0.00071  -0.02625  -0.00036   0.00423
  35   25580.2    390.9   0.148847087   0.02602   0.09357   0.05427   0.11968
  36   40552.7    246.6   0.001926956   0.00053  -0.00722  -0.00586  -0.02115
  37   35932.8    278.3   0.102951145   0.02528   0.04674  -0.13255  -0.07436
  38   34577.0    289.2   0.013271516   0.00314  -0.04721   0.02090  -0.02169
  39   30850.5    324.1   0.147971466   0.03120  -0.02180  -0.10231   0.14233
  40   37874.0    264.0   0.040131426   0.01039  -0.07258   0.05539  -0.04531

-------------------------------------------------------------------
                             CD SPECTRUM
-------------------------------------------------------------------
State  Energy     Wavelength     R         MX        MY        MZ   
       (cm-1)       (nm)     (1e40*cgs)   (au)      (au)      (au)  
-------------------------------------------------------------------
   1   15512.2    644.7      8.87461   0.47518   0.35648  -1.06723
   2   15969.4    626.2     -2.07579   0.33403   1.06405   0.51205
   3   16617.0    601.8     14.90901   1.09065  -0.49257   0.29684
   4   25873.9    386.5     -1.22274  -0.02430   0.04928  -0.07822
   5   26416.5    378.6     -0.86389   0.02388   0.03897   0.03173
   6   27551.5    363.0     -0.21397   0.01055   0.02328  -0.01862
   7   31722.6    315.2    -343.26283   0.40833   0.32652   0.55975
   8   32906.4    303.9    -852.35139  -0.28569  -0.94429   0.43254
   9   32665.9    306.1    1132.80311  -0.80614   0.59141   0.98504
  10   32028.4    312.2     34.52738   0.00619  -0.28709   0.10484
  11   32010.9    312.4    -25.12697   0.32668   0.24924  -0.09568
  12   32029.1    312.2     18.05461  -0.06346   0.23643   0.04089
  13   34925.3    286.3     12.01649   0.15076  -0.05524   0.03887
  14   34642.3    288.7    -85.30280  -0.17888  -0.04420   0.42119
  15   35491.2    281.8    -32.74889   0.19535  -0.31216   0.15204
  16   36676.8    272.7     -2.80121  -0.07567  -0.46661  -0.27230
  17   36646.5    272.9     49.77695   0.55947  -0.08878   0.07703
  18   36519.5    273.8     41.57681  -0.37176   0.19059   0.12050
  19   31026.9    322.3     30.28386   0.12908   0.04906   0.31603
  20   28675.5    348.7    -55.14470   0.15840  -0.04414  -0.29188
  21   32814.4    304.7    -15.61797  -0.16927  -0.02060  -0.12230
  22   37880.6    264.0    217.04275   0.47405  -0.21239   0.00019
  23   36695.7    272.5     -7.80265   0.25321  -0.13140   0.37576
  24   37688.6    265.3    -130.96538   0.19755  -0.23888  -0.93476
  25   28918.4    345.8    -186.46601  -0.30478   0.27932   0.62083
  26   27674.1    361.3      6.14442  -0.00080  -0.06087   0.00127
  27   34748.0    287.8    -123.86772   0.00516   0.09189  -0.47094
  28   31918.0    313.3      6.30093   0.22602  -0.51735  -0.24093
  29   35482.1    281.8    181.70801  -0.17857   0.54521  -0.78651
  30   30501.7    327.9     59.86463   0.27072  -0.40450  -0.19429
  31   31629.3    316.2    -28.62365  -0.07255  -0.15923  -0.35912
  32   33859.6    295.3    -58.61104  -0.24827  -0.05988   0.22253
  33   27702.6    361.0      1.03012   0.00490  -0.14350   0.01794
  34   30950.1    323.1     -3.98165  -0.04661  -0.00602   0.10398
  35   25580.2    390.9    -86.24141  -0.16814   0.06943   0.41437
  36   40552.7    246.6      2.61206  -0.08179   0.12019   0.04888
  37   35932.8    278.3    -16.67154  -0.02324  -0.15541   0.15758
  38   34577.0    289.2     -3.84653   0.04486   0.22411   0.12008
  39   30850.5    324.1    -94.76677  -0.27184  -0.14924   0.15326
  40   37874.0    264.0     44.75964   0.06470   0.02009   0.35927

-------------------------------------------------------------------
         CD SPECTRUM VIA TRANSITION VELOCITY DIPOLE MOMENTS        
-------------------------------------------------------------------
State  Energy     Wavelength     R         MX        MY        MZ   
       (cm-1)       (nm)     (1e40*cgs)   (au)      (au)      (au)  
-------------------------------------------------------------------
   1   15512.2    644.7     19.20930   0.47518   0.35648  -1.06723
   2   15969.4    626.2      5.27042   0.33403   1.06405   0.51205
   3   16617.0    601.8     -0.51797   1.09065  -0.49257   0.29684
   4   25873.9    386.5     -2.06303  -0.02430   0.04928  -0.07822
   5   26416.5    378.6     -1.29241   0.02388   0.03897   0.03173
   6   27551.5    363.0     -0.18594   0.01055   0.02328  -0.01862
   7   31722.6    315.2    -366.39894   0.40833   0.32652   0.55975
   8   32906.4    303.9    -894.56533  -0.28569  -0.94429   0.43254
   9   32665.9    306.1    1211.73384  -0.80614   0.59141   0.98504
  10   32028.4    312.2     37.33777   0.00619  -0.28709   0.10484
  11   32010.9    312.4    -27.37458   0.32668   0.24924  -0.09568
  12   32029.1    312.2     19.48316  -0.06346   0.23643   0.04089
  13   34925.3    286.3     11.74256   0.15076  -0.05524   0.03887
  14   34642.3    288.7    -97.41731  -0.17888  -0.04420   0.42119
  15   35491.2    281.8    -38.80946   0.19535  -0.31216   0.15204
  16   36676.8    272.7     -1.12226  -0.07567  -0.46661  -0.27230
  17   36646.5    272.9     52.86250   0.55947  -0.08878   0.07703
  18   36519.5    273.8     46.36358  -0.37176   0.19059   0.12050
  19   31026.9    322.3     37.31152   0.12908   0.04906   0.31603
  20   28675.5    348.7    -77.09500   0.15840  -0.04414  -0.29188
  21   32814.4    304.7    -18.51268  -0.16927  -0.02060  -0.12230
  22   37880.6    264.0    233.38114   0.47405  -0.21239   0.00019
  23   36695.7    272.5     -7.01829   0.25321  -0.13140   0.37576
  24   37688.6    265.3    -137.02235   0.19755  -0.23888  -0.93476
  25   28918.4    345.8    -273.68708  -0.30478   0.27932   0.62083
  26   27674.1    361.3      8.64992  -0.00080  -0.06087   0.00127
  27   34748.0    287.8    -148.74764   0.00516   0.09189  -0.47094
  28   31918.0    313.3      5.76311   0.22602  -0.51735  -0.24093
  29   35482.1    281.8    220.48049  -0.17857   0.54521  -0.78651
  30   30501.7    327.9     86.77403   0.27072  -0.40450  -0.19429
  31   31629.3    316.2    -37.93613  -0.07255  -0.15923  -0.35912
  32   33859.6    295.3    -74.01141  -0.24827  -0.05988   0.22253
  33   27702.6    361.0      0.50902   0.00490  -0.14350   0.01794
  34   30950.1    323.1     -5.56741  -0.04661  -0.00602   0.10398
  35   25580.2    390.9    -152.19947  -0.16814   0.06943   0.41437
  36   40552.7    246.6      2.92776  -0.08179   0.12019   0.04888
  37   35932.8    278.3    -22.44320  -0.02324  -0.15541   0.15758
  38   34577.0    289.2      0.11851   0.04486   0.22411   0.12008
  39   30850.5    324.1    -144.24547  -0.27184  -0.14924   0.15326
  40   37874.0    264.0     54.26159   0.06470   0.02009   0.35927

Total run time:    12372.980 sec

           *** ORCA-CIS/TD-DFT FINISHED WITHOUT ERROR ***

Maximum memory used throughout the entire CIS-calculation: 4581.0 MB

-----------------------
CIS/TD-DFT TOTAL ENERGY
-----------------------

    E(SCF)  =  -3587.133270512 Eh
    DE(CIS) =      0.070678751 Eh (Root  1)
    ----------------------------- ---------
    E(tot)  =  -3587.062591762 Eh


-------------------------   --------------------
FINAL SINGLE POINT ENERGY     -3587.062591761684
-------------------------   --------------------


                            ***************************************
                            *     ORCA property calculations      *
                            ***************************************


  WARNING: The energy has been calculated at the MP2 level but the densities
           used in the property calculations are still SCF densities
           MP2 response densities have not been calculated 
           use %mp2 Density relaxed end
           or  %mp2 Density unrelaxed end

                                    ---------------------
                                    Active property flags
                                    ---------------------
   (+) Dipole Moment


------------------------------------------------------------------------------
                       ORCA ELECTRIC PROPERTIES CALCULATION
------------------------------------------------------------------------------

Dipole Moment Calculation                       ... on
Quadrupole Moment Calculation                   ... off
Polarizability Calculation                      ... off
GBWName                                         ... FeC_4_B2GPPLYP_def2SVP.gbw
Electron density                                ... FeC_4_B2GPPLYP_def2SVP.scfp
The origin for moment calculation is the CENTER OF MASS  = ( 0.008863, -0.032936  0.010296)

-------------
DIPOLE MOMENT
-------------
                                X             Y             Z
Electronic contribution:      1.32408      -4.04186       1.78933
Nuclear contribution   :     -3.36808      12.51579      -3.91256
                        -----------------------------------------
Total Dipole Moment    :     -2.04399       8.47393      -2.12322
                        -----------------------------------------
Magnitude (a.u.)       :      8.97182
Magnitude (Debye)      :     22.80455



--------------------
Rotational spectrum 
--------------------
 
Rotational constants in cm-1:     0.002342     0.001850     0.001765 
Rotational constants in MHz :    70.207339    55.448862    52.928199 

 Dipole components along the rotational axes: 
x,y,z [a.u.] :    -2.029188     8.527426     1.912829 
x,y,z [Debye]:    -5.157786    21.674996     4.862025 

 

Timings for individual modules:

Sum of individual times         ...    13114.999 sec (= 218.583 min)
GTO integral calculation        ...        2.611 sec (=   0.044 min)   0.0 %
SCF iterations                  ...      501.741 sec (=   8.362 min)   3.8 %
MP2 module                      ...      236.609 sec (=   3.943 min)   1.8 %
CIS module                      ...    12374.038 sec (= 206.234 min)  94.4 %
                             ****ORCA TERMINATED NORMALLY****
TOTAL RUN TIME: 0 days 3 hours 38 minutes 37 seconds 492 msec
