 Entering Gaussian System, Link 0=g16
 Initial command:
 /share/apps/g16/E6B-113X_avx2/g16/l1.exe "/state/partition1/feherp/10795/Gau-2796.inp" -scrdir="/state/partition1/feherp/10795/"
 Default is to use a total of  16 processors:
                               16 via shared-memory
                                1 via Linda
 Entering Link 1 = /share/apps/g16/E6B-113X_avx2/g16/l1.exe PID=      2797.
  
 Copyright (c) 1988,1990,1992,1993,1995,1998,2003,2009,2016,
            Gaussian, Inc.  All Rights Reserved.
  
 This is part of the Gaussian(R) 16 program.  It is based on
 the Gaussian(R) 09 system (copyright 2009, Gaussian, Inc.),
 the Gaussian(R) 03 system (copyright 2003, Gaussian, Inc.),
 the Gaussian(R) 98 system (copyright 1998, Gaussian, Inc.),
 the Gaussian(R) 94 system (copyright 1995, Gaussian, Inc.),
 the Gaussian 92(TM) system (copyright 1992, Gaussian, Inc.),
 the Gaussian 90(TM) system (copyright 1990, Gaussian, Inc.),
 the Gaussian 88(TM) system (copyright 1988, Gaussian, Inc.),
 the Gaussian 86(TM) system (copyright 1986, Carnegie Mellon
 University), and the Gaussian 82(TM) system (copyright 1983,
 Carnegie Mellon University). Gaussian is a federally registered
 trademark of Gaussian, Inc.
  
 This software contains proprietary and confidential information,
 including trade secrets, belonging to Gaussian, Inc.
  
 This software is provided under written license and may be
 used, copied, transmitted, or stored only in accord with that
 written license.
  
 The following legend is applicable only to US Government
 contracts under FAR:
  
                    RESTRICTED RIGHTS LEGEND
  
 Use, reproduction and disclosure by the US Government is
 subject to restrictions as set forth in subparagraphs (a)
 and (c) of the Commercial Computer Software - Restricted
 Rights clause in FAR 52.227-19.
  
 Gaussian, Inc.
 340 Quinnipiac St., Bldg. 40, Wallingford CT 06492
  
  
 ---------------------------------------------------------------
 Warning -- This program may not be used in any manner that
 competes with the business of Gaussian, Inc. or will provide
 assistance to any competitor of Gaussian, Inc.  The licensee
 of this program is prohibited from giving any competitor of
 Gaussian, Inc. access to this program.  By using this program,
 the user acknowledges that Gaussian, Inc. is engaged in the
 business of creating and licensing software in the field of
 computational chemistry and represents and warrants to the
 licensee that it is not a competitor of Gaussian, Inc. and that
 it will not use this program in any manner prohibited above.
 ---------------------------------------------------------------
  

 Cite this work as:
 Gaussian 16, Revision A.03,
 M. J. Frisch, G. W. Trucks, H. B. Schlegel, G. E. Scuseria, 
 M. A. Robb, J. R. Cheeseman, G. Scalmani, V. Barone, 
 G. A. Petersson, H. Nakatsuji, X. Li, M. Caricato, A. V. Marenich, 
 J. Bloino, B. G. Janesko, R. Gomperts, B. Mennucci, H. P. Hratchian, 
 J. V. Ortiz, A. F. Izmaylov, J. L. Sonnenberg, D. Williams-Young, 
 F. Ding, F. Lipparini, F. Egidi, J. Goings, B. Peng, A. Petrone, 
 T. Henderson, D. Ranasinghe, V. G. Zakrzewski, J. Gao, N. Rega, 
 G. Zheng, W. Liang, M. Hada, M. Ehara, K. Toyota, R. Fukuda, 
 J. Hasegawa, M. Ishida, T. Nakajima, Y. Honda, O. Kitao, H. Nakai, 
 T. Vreven, K. Throssell, J. A. Montgomery, Jr., J. E. Peralta, 
 F. Ogliaro, M. J. Bearpark, J. J. Heyd, E. N. Brothers, K. N. Kudin, 
 V. N. Staroverov, T. A. Keith, R. Kobayashi, J. Normand, 
 K. Raghavachari, A. P. Rendell, J. C. Burant, S. S. Iyengar, 
 J. Tomasi, M. Cossi, J. M. Millam, M. Klene, C. Adamo, R. Cammi, 
 J. W. Ochterski, R. L. Martin, K. Morokuma, O. Farkas, 
 J. B. Foresman, and D. J. Fox, Gaussian, Inc., Wallingford CT, 2016.
 
 ******************************************
 Gaussian 16:  ES64L-G16RevA.03 25-Dec-2016
                15-Oct-2023 
 ******************************************
 %chk=cp.chk
 %NProcshared=16
 Will use up to   16 processors via shared memory.
 ----------------------------------------------------------------------
 #p m06/def2svp opt Symmetry=None int=ultrafine scrf=(SMD,solvent=Aceto
 nitrile)
 ----------------------------------------------------------------------
 1/18=20,19=15,26=6,38=1/1,3;
 2/9=110,12=2,15=3,17=6,18=5,40=1/2;
 3/5=43,7=101,11=2,25=1,30=1,70=32201,71=1,72=2,74=-54,75=-5/1,2,3;
 4//1;
 5/5=2,38=5,53=2/2;
 6/7=2,8=2,9=2,10=2,28=1/1;
 7/30=1/1,2,3,16;
 1/18=20,19=15,26=6/3(2);
 2/9=110,15=3/2;
 99//99;
 2/9=110,15=3/2;
 3/5=43,7=101,11=2,25=1,30=1,70=32205,71=1,72=2,74=-54,75=-5/1,2,3;
 4/5=5,16=3,69=1/1;
 5/5=2,38=5,53=2/2;
 7/30=1/1,2,3,16;
 1/18=20,19=15,26=6/3(-5);
 2/9=110,15=3/2;
 6/7=2,8=2,9=2,10=2,19=2,28=1/1;
 99/9=1/99;
 Leave Link    1 at Sun Oct 15 06:12:44 2023, MaxMem=           0 cpu:               1.0 elap:               0.1
 (Enter /share/apps/g16/E6B-113X_avx2/g16/l101.exe)
 -----
 Title
 -----
 Symbolic Z-matrix:
 Charge =  2 Multiplicity = 1
 Fe                   -0.18443   1.05692  -0.14484 
 N                    -0.45142   2.99522  -0.51343 
 C                     0.48876   3.80074   0.05491 
 C                    -1.38066   3.55542  -1.2952 
 C                     0.4953    5.18331  -0.12763 
 C                    -1.43442   4.92992  -1.52114 
 H                    -2.10512   2.88586  -1.76306 
 C                    -0.48754   5.75915  -0.92642 
 H                     1.27032   5.78119   0.35372 
 H                    -2.21817   5.33258  -2.16349 
 H                    -0.51009   6.8379   -1.08791 
 C                     1.4614    3.09145   0.8473 
 H                     2.26188   3.62967   1.3685 
 N                     1.33638   1.80241   0.91334 
 C                     2.29051   1.04158   1.62714 
 C                     3.66315   1.17423   1.37216 
 C                     1.84597   0.10027   2.55566 
 C                     4.57943   0.34977   2.02358 
 H                     4.00823   1.90821   0.63949 
 C                     2.78162  -0.70471   3.19014 
 H                     0.79323   0.01225   2.81134 
 C                     4.14863  -0.60609   2.93809 
 H                     5.64353   0.44781   1.8026 
 N                    -1.32477   0.96619   1.48234 
 C                    -1.56743  -0.30234   1.92027 
 C                    -1.88841   1.98587   2.13884 
 C                    -2.4061   -0.57018   3.0018 
 C                    -2.7313    1.7915    3.23227 
 H                    -1.67212   2.99267   1.77373 
 C                    -3.00388   0.49664   3.66608 
 H                    -2.56574  -1.60473   3.30991 
 H                    -3.16669   2.65901   3.72905 
 H                    -3.66535   0.32095   4.51581 
 C                    -0.83075  -1.31854   1.20958 
 H                    -0.94169  -2.37679   1.47707 
 N                     0.00243  -0.90858   0.30273 
 C                     0.74312  -1.84157  -0.45301 
 C                     0.1628   -3.02119  -0.94521 
 C                     2.0748   -1.54683  -0.75559 
 C                     0.90956  -3.89002  -1.73903 
 H                    -0.88145  -3.24939  -0.71859 
 C                     2.79383  -2.43306  -1.54491 
 H                     2.55061  -0.64546  -0.37385 
 C                     2.23523  -3.60472  -2.05218 
 H                     0.44564  -4.79854  -2.1263 
 N                     0.83206   0.94835  -1.87323 
 C                     0.11166   0.42715  -2.90408 
 C                     2.0999    1.30326  -2.10579 
 C                     0.65934   0.21893  -4.16979 
 C                     2.71247   1.12976  -3.34629 
 H                     2.66107   1.72529  -1.26965 
 C                     1.98705   0.57062  -4.39384 
 H                     0.037    -0.21223  -4.95509 
 H                     3.75461   1.42569  -3.46974 
 H                     2.44566   0.41557  -5.3716 
 C                    -1.25176   0.10325  -2.56597 
 H                    -1.913    -0.36391  -3.30589 
 N                    -1.64886   0.39203  -1.36689 
 C                    -2.92569  -0.03282  -0.9361 
 C                    -3.29649  -1.36886  -1.1026 
 C                    -3.7879    0.85562  -0.27674 
 C                    -4.52099  -1.78829  -0.59274 
 H                    -2.63647  -2.07683  -1.60392 
 C                    -5.01495   0.4104    0.20515 
 H                    -3.49554   1.89953  -0.15311 
 C                    -5.39322  -0.92307   0.0608 
 H                    -5.68271   1.11084   0.7097 
 N                    -4.88932  -3.20264  -0.74285 
 O                    -4.06605  -3.95514  -1.24191 
 O                    -5.99574  -3.54548  -0.35891 
 N                     4.18573  -2.09597  -1.87387 
 O                     4.81966  -2.89403  -2.54485 
 O                     4.62763  -1.03328  -1.46161 
 N                     2.29398  -1.70753   4.14662 
 O                     1.0847   -1.85819   4.24595 
 O                     3.12336  -2.3382    4.78123 
 H                    -6.34132  -1.29407   0.44901 
 H                     2.83073  -4.26659  -2.68016 
 H                     4.84804  -1.26767   3.4483 
 
 ITRead=  0  0  0  0  0  0  0  0  0  0  0  0  0  0  0  0  0  0  0  0
 ITRead=  0  0  0  0  0  0  0  0  0  0  0  0  0  0  0  0  0  0  0  0
 ITRead=  0  0  0  0  0  0  0  0  0  0  0  0  0  0  0  0  0  0  0  0
 ITRead=  0  0  0  0  0  0  0  0  0  0  0  0  0  0  0  0  0  0  0
 MicOpt= -1 -1 -1 -1 -1 -1 -1 -1 -1 -1 -1 -1 -1 -1 -1 -1 -1 -1 -1 -1
 MicOpt= -1 -1 -1 -1 -1 -1 -1 -1 -1 -1 -1 -1 -1 -1 -1 -1 -1 -1 -1 -1
 MicOpt= -1 -1 -1 -1 -1 -1 -1 -1 -1 -1 -1 -1 -1 -1 -1 -1 -1 -1 -1 -1
 MicOpt= -1 -1 -1 -1 -1 -1 -1 -1 -1 -1 -1 -1 -1 -1 -1 -1 -1 -1 -1
 NAtoms=     79 NQM=       79 NQMF=       0 NMMI=      0 NMMIF=      0
                NMic=       0 NMicF=      0.
                    Isotopes and Nuclear Properties:
 (Nuclear quadrupole moments (NQMom) in fm**2, nuclear magnetic moments (NMagM)
  in nuclear magnetons)

  Atom         1           2           3           4           5           6           7           8           9          10
 IAtWgt=          56          14          12          12          12          12           1          12           1           1
 AtmWgt=  55.9349393  14.0030740  12.0000000  12.0000000  12.0000000  12.0000000   1.0078250  12.0000000   1.0078250   1.0078250
 NucSpn=           0           2           0           0           0           0           1           0           1           1
 AtZEff=  -0.0000000  -0.0000000  -0.0000000  -0.0000000  -0.0000000  -0.0000000  -0.0000000  -0.0000000  -0.0000000  -0.0000000
 NQMom=    0.0000000   2.0440000   0.0000000   0.0000000   0.0000000   0.0000000   0.0000000   0.0000000   0.0000000   0.0000000
 NMagM=    0.0000000   0.4037610   0.0000000   0.0000000   0.0000000   0.0000000   2.7928460   0.0000000   2.7928460   2.7928460
 AtZNuc=  26.0000000   7.0000000   6.0000000   6.0000000   6.0000000   6.0000000   1.0000000   6.0000000   1.0000000   1.0000000

  Atom        11          12          13          14          15          16          17          18          19          20
 IAtWgt=           1          12           1          14          12          12          12          12           1          12
 AtmWgt=   1.0078250  12.0000000   1.0078250  14.0030740  12.0000000  12.0000000  12.0000000  12.0000000   1.0078250  12.0000000
 NucSpn=           1           0           1           2           0           0           0           0           1           0
 AtZEff=  -0.0000000  -0.0000000  -0.0000000  -0.0000000  -0.0000000  -0.0000000  -0.0000000  -0.0000000  -0.0000000  -0.0000000
 NQMom=    0.0000000   0.0000000   0.0000000   2.0440000   0.0000000   0.0000000   0.0000000   0.0000000   0.0000000   0.0000000
 NMagM=    2.7928460   0.0000000   2.7928460   0.4037610   0.0000000   0.0000000   0.0000000   0.0000000   2.7928460   0.0000000
 AtZNuc=   1.0000000   6.0000000   1.0000000   7.0000000   6.0000000   6.0000000   6.0000000   6.0000000   1.0000000   6.0000000

  Atom        21          22          23          24          25          26          27          28          29          30
 IAtWgt=           1          12           1          14          12          12          12          12           1          12
 AtmWgt=   1.0078250  12.0000000   1.0078250  14.0030740  12.0000000  12.0000000  12.0000000  12.0000000   1.0078250  12.0000000
 NucSpn=           1           0           1           2           0           0           0           0           1           0
 AtZEff=  -0.0000000  -0.0000000  -0.0000000  -0.0000000  -0.0000000  -0.0000000  -0.0000000  -0.0000000  -0.0000000  -0.0000000
 NQMom=    0.0000000   0.0000000   0.0000000   2.0440000   0.0000000   0.0000000   0.0000000   0.0000000   0.0000000   0.0000000
 NMagM=    2.7928460   0.0000000   2.7928460   0.4037610   0.0000000   0.0000000   0.0000000   0.0000000   2.7928460   0.0000000
 AtZNuc=   1.0000000   6.0000000   1.0000000   7.0000000   6.0000000   6.0000000   6.0000000   6.0000000   1.0000000   6.0000000

  Atom        31          32          33          34          35          36          37          38          39          40
 IAtWgt=           1           1           1          12           1          14          12          12          12          12
 AtmWgt=   1.0078250   1.0078250   1.0078250  12.0000000   1.0078250  14.0030740  12.0000000  12.0000000  12.0000000  12.0000000
 NucSpn=           1           1           1           0           1           2           0           0           0           0
 AtZEff=  -0.0000000  -0.0000000  -0.0000000  -0.0000000  -0.0000000  -0.0000000  -0.0000000  -0.0000000  -0.0000000  -0.0000000
 NQMom=    0.0000000   0.0000000   0.0000000   0.0000000   0.0000000   2.0440000   0.0000000   0.0000000   0.0000000   0.0000000
 NMagM=    2.7928460   2.7928460   2.7928460   0.0000000   2.7928460   0.4037610   0.0000000   0.0000000   0.0000000   0.0000000
 AtZNuc=   1.0000000   1.0000000   1.0000000   6.0000000   1.0000000   7.0000000   6.0000000   6.0000000   6.0000000   6.0000000

  Atom        41          42          43          44          45          46          47          48          49          50
 IAtWgt=           1          12           1          12           1          14          12          12          12          12
 AtmWgt=   1.0078250  12.0000000   1.0078250  12.0000000   1.0078250  14.0030740  12.0000000  12.0000000  12.0000000  12.0000000
 NucSpn=           1           0           1           0           1           2           0           0           0           0
 AtZEff=  -0.0000000  -0.0000000  -0.0000000  -0.0000000  -0.0000000  -0.0000000  -0.0000000  -0.0000000  -0.0000000  -0.0000000
 NQMom=    0.0000000   0.0000000   0.0000000   0.0000000   0.0000000   2.0440000   0.0000000   0.0000000   0.0000000   0.0000000
 NMagM=    2.7928460   0.0000000   2.7928460   0.0000000   2.7928460   0.4037610   0.0000000   0.0000000   0.0000000   0.0000000
 AtZNuc=   1.0000000   6.0000000   1.0000000   6.0000000   1.0000000   7.0000000   6.0000000   6.0000000   6.0000000   6.0000000

  Atom        51          52          53          54          55          56          57          58          59          60
 IAtWgt=           1          12           1           1           1          12           1          14          12          12
 AtmWgt=   1.0078250  12.0000000   1.0078250   1.0078250   1.0078250  12.0000000   1.0078250  14.0030740  12.0000000  12.0000000
 NucSpn=           1           0           1           1           1           0           1           2           0           0
 AtZEff=  -0.0000000  -0.0000000  -0.0000000  -0.0000000  -0.0000000  -0.0000000  -0.0000000  -0.0000000  -0.0000000  -0.0000000
 NQMom=    0.0000000   0.0000000   0.0000000   0.0000000   0.0000000   0.0000000   0.0000000   2.0440000   0.0000000   0.0000000
 NMagM=    2.7928460   0.0000000   2.7928460   2.7928460   2.7928460   0.0000000   2.7928460   0.4037610   0.0000000   0.0000000
 AtZNuc=   1.0000000   6.0000000   1.0000000   1.0000000   1.0000000   6.0000000   1.0000000   7.0000000   6.0000000   6.0000000

  Atom        61          62          63          64          65          66          67          68          69          70
 IAtWgt=          12          12           1          12           1          12           1          14          16          16
 AtmWgt=  12.0000000  12.0000000   1.0078250  12.0000000   1.0078250  12.0000000   1.0078250  14.0030740  15.9949146  15.9949146
 NucSpn=           0           0           1           0           1           0           1           2           0           0
 AtZEff=  -0.0000000  -0.0000000  -0.0000000  -0.0000000  -0.0000000  -0.0000000  -0.0000000  -0.0000000  -0.0000000  -0.0000000
 NQMom=    0.0000000   0.0000000   0.0000000   0.0000000   0.0000000   0.0000000   0.0000000   2.0440000   0.0000000   0.0000000
 NMagM=    0.0000000   0.0000000   2.7928460   0.0000000   2.7928460   0.0000000   2.7928460   0.4037610   0.0000000   0.0000000
 AtZNuc=   6.0000000   6.0000000   1.0000000   6.0000000   1.0000000   6.0000000   1.0000000   7.0000000   8.0000000   8.0000000

  Atom        71          72          73          74          75          76          77          78          79
 IAtWgt=          14          16          16          14          16          16           1           1           1
 AtmWgt=  14.0030740  15.9949146  15.9949146  14.0030740  15.9949146  15.9949146   1.0078250   1.0078250   1.0078250
 NucSpn=           2           0           0           2           0           0           1           1           1
 AtZEff=  -0.0000000  -0.0000000  -0.0000000  -0.0000000  -0.0000000  -0.0000000  -0.0000000  -0.0000000  -0.0000000
 NQMom=    2.0440000   0.0000000   0.0000000   2.0440000   0.0000000   0.0000000   0.0000000   0.0000000   0.0000000
 NMagM=    0.4037610   0.0000000   0.0000000   0.4037610   0.0000000   0.0000000   2.7928460   2.7928460   2.7928460
 AtZNuc=   7.0000000   8.0000000   8.0000000   7.0000000   8.0000000   8.0000000   1.0000000   1.0000000   1.0000000
 Leave Link  101 at Sun Oct 15 06:12:44 2023, MaxMem=  1887436800 cpu:               8.0 elap:               0.5
 (Enter /share/apps/g16/E6B-113X_avx2/g16/l103.exe)

 GradGradGradGradGradGradGradGradGradGradGradGradGradGradGradGradGradGrad
 Berny optimization.
 Initialization pass.
                           ----------------------------
                           !    Initial Parameters    !
                           ! (Angstroms and Degrees)  !
 --------------------------                            --------------------------
 ! Name  Definition              Value          Derivative Info.                !
 --------------------------------------------------------------------------------
 ! R1    R(1,2)                  1.991          estimate D2E/DX2                !
 ! R2    R(1,14)                 1.9971         estimate D2E/DX2                !
 ! R3    R(1,24)                 1.989          estimate D2E/DX2                !
 ! R4    R(1,36)                 2.0245         estimate D2E/DX2                !
 ! R5    R(1,46)                 2.0081         estimate D2E/DX2                !
 ! R6    R(1,58)                 2.0199         estimate D2E/DX2                !
 ! R7    R(2,3)                  1.3623         estimate D2E/DX2                !
 ! R8    R(2,4)                  1.3373         estimate D2E/DX2                !
 ! R9    R(3,5)                  1.3946         estimate D2E/DX2                !
 ! R10   R(3,12)                 1.4412         estimate D2E/DX2                !
 ! R11   R(4,6)                  1.394          estimate D2E/DX2                !
 ! R12   R(4,7)                  1.0918         estimate D2E/DX2                !
 ! R13   R(5,8)                  1.3913         estimate D2E/DX2                !
 ! R14   R(5,9)                  1.0908         estimate D2E/DX2                !
 ! R15   R(6,8)                  1.3921         estimate D2E/DX2                !
 ! R16   R(6,10)                 1.0904         estimate D2E/DX2                !
 ! R17   R(8,11)                 1.091          estimate D2E/DX2                !
 ! R18   R(12,13)                1.0964         estimate D2E/DX2                !
 ! R19   R(12,14)                1.2968         estimate D2E/DX2                !
 ! R20   R(14,15)                1.4138         estimate D2E/DX2                !
 ! R21   R(15,16)                1.4024         estimate D2E/DX2                !
 ! R22   R(15,17)                1.3949         estimate D2E/DX2                !
 ! R23   R(16,18)                1.3941         estimate D2E/DX2                !
 ! R24   R(16,19)                1.093          estimate D2E/DX2                !
 ! R25   R(17,20)                1.3878         estimate D2E/DX2                !
 ! R26   R(17,21)                1.0869         estimate D2E/DX2                !
 ! R27   R(18,22)                1.3912         estimate D2E/DX2                !
 ! R28   R(18,23)                1.0912         estimate D2E/DX2                !
 ! R29   R(20,22)                1.3935         estimate D2E/DX2                !
 ! R30   R(20,74)                1.4691         estimate D2E/DX2                !
 ! R31   R(22,79)                1.0896         estimate D2E/DX2                !
 ! R32   R(24,25)                1.3638         estimate D2E/DX2                !
 ! R33   R(24,26)                1.3373         estimate D2E/DX2                !
 ! R34   R(25,27)                1.3946         estimate D2E/DX2                !
 ! R35   R(25,34)                1.4424         estimate D2E/DX2                !
 ! R36   R(26,28)                1.3942         estimate D2E/DX2                !
 ! R37   R(26,29)                1.0926         estimate D2E/DX2                !
 ! R38   R(27,30)                1.3917         estimate D2E/DX2                !
 ! R39   R(27,31)                1.0912         estimate D2E/DX2                !
 ! R40   R(28,30)                1.3925         estimate D2E/DX2                !
 ! R41   R(28,32)                1.0904         estimate D2E/DX2                !
 ! R42   R(30,33)                1.0911         estimate D2E/DX2                !
 ! R43   R(34,35)                1.0972         estimate D2E/DX2                !
 ! R44   R(34,36)                1.2979         estimate D2E/DX2                !
 ! R45   R(36,37)                1.4108         estimate D2E/DX2                !
 ! R46   R(37,38)                1.4038         estimate D2E/DX2                !
 ! R47   R(37,39)                1.3971         estimate D2E/DX2                !
 ! R48   R(38,40)                1.3938         estimate D2E/DX2                !
 ! R49   R(38,41)                1.0926         estimate D2E/DX2                !
 ! R50   R(39,42)                1.3876         estimate D2E/DX2                !
 ! R51   R(39,43)                1.0884         estimate D2E/DX2                !
 ! R52   R(40,44)                1.3917         estimate D2E/DX2                !
 ! R53   R(40,45)                1.0911         estimate D2E/DX2                !
 ! R54   R(42,44)                1.3936         estimate D2E/DX2                !
 ! R55   R(42,71)                1.4694         estimate D2E/DX2                !
 ! R56   R(44,78)                1.0895         estimate D2E/DX2                !
 ! R57   R(46,47)                1.3613         estimate D2E/DX2                !
 ! R58   R(46,48)                1.337          estimate D2E/DX2                !
 ! R59   R(47,49)                1.3948         estimate D2E/DX2                !
 ! R60   R(47,56)                1.4416         estimate D2E/DX2                !
 ! R61   R(48,50)                1.3943         estimate D2E/DX2                !
 ! R62   R(48,51)                1.0919         estimate D2E/DX2                !
 ! R63   R(49,52)                1.3917         estimate D2E/DX2                !
 ! R64   R(49,53)                1.0908         estimate D2E/DX2                !
 ! R65   R(50,52)                1.3915         estimate D2E/DX2                !
 ! R66   R(50,54)                1.0904         estimate D2E/DX2                !
 ! R67   R(52,55)                1.091          estimate D2E/DX2                !
 ! R68   R(56,57)                1.0968         estimate D2E/DX2                !
 ! R69   R(56,58)                1.2957         estimate D2E/DX2                !
 ! R70   R(58,59)                1.4129         estimate D2E/DX2                !
 ! R71   R(59,60)                1.3965         estimate D2E/DX2                !
 ! R72   R(59,61)                1.4027         estimate D2E/DX2                !
 ! R73   R(60,62)                1.3911         estimate D2E/DX2                !
 ! R74   R(60,63)                1.09           estimate D2E/DX2                !
 ! R75   R(61,64)                1.3914         estimate D2E/DX2                !
 ! R76   R(61,65)                1.0911         estimate D2E/DX2                !
 ! R77   R(62,66)                1.3916         estimate D2E/DX2                !
 ! R78   R(62,68)                1.4692         estimate D2E/DX2                !
 ! R79   R(64,66)                1.3936         estimate D2E/DX2                !
 ! R80   R(64,67)                1.0914         estimate D2E/DX2                !
 ! R81   R(66,77)                1.0896         estimate D2E/DX2                !
 ! R82   R(68,69)                1.2219         estimate D2E/DX2                !
 ! R83   R(68,70)                1.2203         estimate D2E/DX2                !
 ! R84   R(71,72)                1.2202         estimate D2E/DX2                !
 ! R85   R(71,73)                1.2225         estimate D2E/DX2                !
 ! R86   R(74,75)                1.2227         estimate D2E/DX2                !
 ! R87   R(74,76)                1.22           estimate D2E/DX2                !
 ! A1    A(2,1,14)              80.6074         estimate D2E/DX2                !
 ! A2    A(2,1,24)              96.8332         estimate D2E/DX2                !
 ! A3    A(2,1,46)              87.7746         estimate D2E/DX2                !
 ! A4    A(2,1,58)              96.3862         estimate D2E/DX2                !
 ! A5    A(14,1,24)             91.1546         estimate D2E/DX2                !
 ! A6    A(14,1,36)            100.0781         estimate D2E/DX2                !
 ! A7    A(14,1,46)             95.2073         estimate D2E/DX2                !
 ! A8    A(24,1,36)             80.0826         estimate D2E/DX2                !
 ! A9    A(24,1,58)             93.6854         estimate D2E/DX2                !
 ! A10   A(36,1,46)             95.2253         estimate D2E/DX2                !
 ! A11   A(36,1,58)             83.1708         estimate D2E/DX2                !
 ! A12   A(46,1,58)             80.1224         estimate D2E/DX2                !
 ! A13   A(1,2,3)              113.9456         estimate D2E/DX2                !
 ! A14   A(1,2,4)              127.5312         estimate D2E/DX2                !
 ! A15   A(3,2,4)              118.4072         estimate D2E/DX2                !
 ! A16   A(2,3,5)              122.3332         estimate D2E/DX2                !
 ! A17   A(2,3,12)             113.8372         estimate D2E/DX2                !
 ! A18   A(5,3,12)             123.8294         estimate D2E/DX2                !
 ! A19   A(2,4,6)              122.3155         estimate D2E/DX2                !
 ! A20   A(2,4,7)              117.0439         estimate D2E/DX2                !
 ! A21   A(6,4,7)              120.6397         estimate D2E/DX2                !
 ! A22   A(3,5,8)              118.827          estimate D2E/DX2                !
 ! A23   A(3,5,9)              119.273          estimate D2E/DX2                !
 ! A24   A(8,5,9)              121.8994         estimate D2E/DX2                !
 ! A25   A(4,6,8)              119.4638         estimate D2E/DX2                !
 ! A26   A(4,6,10)             119.1639         estimate D2E/DX2                !
 ! A27   A(8,6,10)             121.3721         estimate D2E/DX2                !
 ! A28   A(5,8,6)              118.636          estimate D2E/DX2                !
 ! A29   A(5,8,11)             120.5861         estimate D2E/DX2                !
 ! A30   A(6,8,11)             120.7765         estimate D2E/DX2                !
 ! A31   A(3,12,13)            120.8307         estimate D2E/DX2                !
 ! A32   A(3,12,14)            116.8823         estimate D2E/DX2                !
 ! A33   A(13,12,14)           122.2864         estimate D2E/DX2                !
 ! A34   A(1,14,12)            114.6768         estimate D2E/DX2                !
 ! A35   A(1,14,15)            125.4904         estimate D2E/DX2                !
 ! A36   A(12,14,15)           119.7091         estimate D2E/DX2                !
 ! A37   A(14,15,16)           121.1884         estimate D2E/DX2                !
 ! A38   A(14,15,17)           118.9575         estimate D2E/DX2                !
 ! A39   A(16,15,17)           119.7865         estimate D2E/DX2                !
 ! A40   A(15,16,18)           120.1581         estimate D2E/DX2                !
 ! A41   A(15,16,19)           119.6314         estimate D2E/DX2                !
 ! A42   A(18,16,19)           120.1885         estimate D2E/DX2                !
 ! A43   A(15,17,20)           118.7429         estimate D2E/DX2                !
 ! A44   A(15,17,21)           121.3248         estimate D2E/DX2                !
 ! A45   A(20,17,21)           119.8996         estimate D2E/DX2                !
 ! A46   A(16,18,22)           120.6594         estimate D2E/DX2                !
 ! A47   A(16,18,23)           119.547          estimate D2E/DX2                !
 ! A48   A(22,18,23)           119.7886         estimate D2E/DX2                !
 ! A49   A(17,20,22)           122.5211         estimate D2E/DX2                !
 ! A50   A(17,20,74)           118.0216         estimate D2E/DX2                !
 ! A51   A(22,20,74)           119.451          estimate D2E/DX2                !
 ! A52   A(18,22,20)           118.1169         estimate D2E/DX2                !
 ! A53   A(18,22,79)           121.7496         estimate D2E/DX2                !
 ! A54   A(20,22,79)           120.1333         estimate D2E/DX2                !
 ! A55   A(1,24,25)            114.0256         estimate D2E/DX2                !
 ! A56   A(1,24,26)            127.477          estimate D2E/DX2                !
 ! A57   A(25,24,26)           118.4637         estimate D2E/DX2                !
 ! A58   A(24,25,27)           122.3233         estimate D2E/DX2                !
 ! A59   A(24,25,34)           113.9682         estimate D2E/DX2                !
 ! A60   A(27,25,34)           123.6396         estimate D2E/DX2                !
 ! A61   A(24,26,28)           122.2426         estimate D2E/DX2                !
 ! A62   A(24,26,29)           117.0733         estimate D2E/DX2                !
 ! A63   A(28,26,29)           120.6791         estimate D2E/DX2                !
 ! A64   A(25,27,30)           118.7689         estimate D2E/DX2                !
 ! A65   A(25,27,31)           119.2779         estimate D2E/DX2                !
 ! A66   A(30,27,31)           121.9494         estimate D2E/DX2                !
 ! A67   A(26,28,30)           119.4911         estimate D2E/DX2                !
 ! A68   A(26,28,32)           119.1962         estimate D2E/DX2                !
 ! A69   A(30,28,32)           121.3124         estimate D2E/DX2                !
 ! A70   A(27,30,28)           118.6876         estimate D2E/DX2                !
 ! A71   A(27,30,33)           120.5784         estimate D2E/DX2                !
 ! A72   A(28,30,33)           120.7315         estimate D2E/DX2                !
 ! A73   A(25,34,35)           120.5156         estimate D2E/DX2                !
 ! A74   A(25,34,36)           116.7174         estimate D2E/DX2                !
 ! A75   A(35,34,36)           122.6775         estimate D2E/DX2                !
 ! A76   A(1,36,34)            113.6953         estimate D2E/DX2                !
 ! A77   A(1,36,37)            124.8975         estimate D2E/DX2                !
 ! A78   A(34,36,37)           120.1609         estimate D2E/DX2                !
 ! A79   A(36,37,38)           121.7706         estimate D2E/DX2                !
 ! A80   A(36,37,39)           118.4869         estimate D2E/DX2                !
 ! A81   A(38,37,39)           119.6965         estimate D2E/DX2                !
 ! A82   A(37,38,40)           120.1345         estimate D2E/DX2                !
 ! A83   A(37,38,41)           119.8597         estimate D2E/DX2                !
 ! A84   A(40,38,41)           119.998          estimate D2E/DX2                !
 ! A85   A(37,39,42)           118.8412         estimate D2E/DX2                !
 ! A86   A(37,39,43)           121.0286         estimate D2E/DX2                !
 ! A87   A(42,39,43)           120.1269         estimate D2E/DX2                !
 ! A88   A(38,40,44)           120.7109         estimate D2E/DX2                !
 ! A89   A(38,40,45)           119.5623         estimate D2E/DX2                !
 ! A90   A(44,40,45)           119.7243         estimate D2E/DX2                !
 ! A91   A(39,42,44)           122.4331         estimate D2E/DX2                !
 ! A92   A(39,42,71)           118.1429         estimate D2E/DX2                !
 ! A93   A(44,42,71)           119.4102         estimate D2E/DX2                !
 ! A94   A(40,44,42)           118.1813         estimate D2E/DX2                !
 ! A95   A(40,44,78)           121.7213         estimate D2E/DX2                !
 ! A96   A(42,44,78)           120.0964         estimate D2E/DX2                !
 ! A97   A(1,46,47)            113.8651         estimate D2E/DX2                !
 ! A98   A(1,46,48)            127.9809         estimate D2E/DX2                !
 ! A99   A(47,46,48)           118.1472         estimate D2E/DX2                !
 ! A100  A(46,47,49)           122.4473         estimate D2E/DX2                !
 ! A101  A(46,47,56)           114.1366         estimate D2E/DX2                !
 ! A102  A(49,47,56)           123.414          estimate D2E/DX2                !
 ! A103  A(46,48,50)           122.5709         estimate D2E/DX2                !
 ! A104  A(46,48,51)           117.1798         estimate D2E/DX2                !
 ! A105  A(50,48,51)           120.2385         estimate D2E/DX2                !
 ! A106  A(47,49,52)           118.8816         estimate D2E/DX2                !
 ! A107  A(47,49,53)           119.2275         estimate D2E/DX2                !
 ! A108  A(52,49,53)           121.8908         estimate D2E/DX2                !
 ! A109  A(48,50,52)           119.3887         estimate D2E/DX2                !
 ! A110  A(48,50,54)           119.1349         estimate D2E/DX2                !
 ! A111  A(52,50,54)           121.4727         estimate D2E/DX2                !
 ! A112  A(49,52,50)           118.5367         estimate D2E/DX2                !
 ! A113  A(49,52,55)           120.623          estimate D2E/DX2                !
 ! A114  A(50,52,55)           120.8395         estimate D2E/DX2                !
 ! A115  A(47,56,57)           120.5091         estimate D2E/DX2                !
 ! A116  A(47,56,58)           117.1827         estimate D2E/DX2                !
 ! A117  A(57,56,58)           122.3078         estimate D2E/DX2                !
 ! A118  A(1,58,56)            114.2712         estimate D2E/DX2                !
 ! A119  A(1,58,59)            124.7275         estimate D2E/DX2                !
 ! A120  A(56,58,59)           119.478          estimate D2E/DX2                !
 ! A121  A(58,59,60)           119.4232         estimate D2E/DX2                !
 ! A122  A(58,59,61)           120.5541         estimate D2E/DX2                !
 ! A123  A(60,59,61)           119.921          estimate D2E/DX2                !
 ! A124  A(59,60,62)           118.5847         estimate D2E/DX2                !
 ! A125  A(59,60,63)           121.0267         estimate D2E/DX2                !
 ! A126  A(62,60,63)           120.3787         estimate D2E/DX2                !
 ! A127  A(59,61,64)           120.1458         estimate D2E/DX2                !
 ! A128  A(59,61,65)           119.6401         estimate D2E/DX2                !
 ! A129  A(64,61,65)           120.2111         estimate D2E/DX2                !
 ! A130  A(60,62,66)           122.4371         estimate D2E/DX2                !
 ! A131  A(60,62,68)           118.2593         estimate D2E/DX2                !
 ! A132  A(66,62,68)           119.3            estimate D2E/DX2                !
 ! A133  A(61,64,66)           120.6417         estimate D2E/DX2                !
 ! A134  A(61,64,67)           119.6246         estimate D2E/DX2                !
 ! A135  A(66,64,67)           119.7309         estimate D2E/DX2                !
 ! A136  A(62,66,64)           118.2583         estimate D2E/DX2                !
 ! A137  A(62,66,77)           120.0668         estimate D2E/DX2                !
 ! A138  A(64,66,77)           121.6741         estimate D2E/DX2                !
 ! A139  A(62,68,69)           117.7527         estimate D2E/DX2                !
 ! A140  A(62,68,70)           117.75           estimate D2E/DX2                !
 ! A141  A(69,68,70)           124.4972         estimate D2E/DX2                !
 ! A142  A(42,71,72)           117.7212         estimate D2E/DX2                !
 ! A143  A(42,71,73)           117.7954         estimate D2E/DX2                !
 ! A144  A(72,71,73)           124.4827         estimate D2E/DX2                !
 ! A145  A(20,74,75)           117.7297         estimate D2E/DX2                !
 ! A146  A(20,74,76)           117.7676         estimate D2E/DX2                !
 ! A147  A(75,74,76)           124.5011         estimate D2E/DX2                !
 ! A148  L(2,1,36,14,-1)       180.6855         estimate D2E/DX2                !
 ! A149  L(14,1,58,2,-1)       176.9936         estimate D2E/DX2                !
 ! A150  L(24,1,46,2,-1)       184.6078         estimate D2E/DX2                !
 ! A151  L(2,1,36,14,-2)       176.8674         estimate D2E/DX2                !
 ! A152  L(14,1,58,2,-2)       175.4517         estimate D2E/DX2                !
 ! A153  L(24,1,46,2,-2)       185.6952         estimate D2E/DX2                !
 ! D1    D(14,1,2,3)             2.0446         estimate D2E/DX2                !
 ! D2    D(14,1,2,4)           178.0293         estimate D2E/DX2                !
 ! D3    D(24,1,2,3)            92.0875         estimate D2E/DX2                !
 ! D4    D(24,1,2,4)           -91.9278         estimate D2E/DX2                !
 ! D5    D(46,1,2,3)           -93.6076         estimate D2E/DX2                !
 ! D6    D(46,1,2,4)            82.3771         estimate D2E/DX2                !
 ! D7    D(58,1,2,3)          -173.4071         estimate D2E/DX2                !
 ! D8    D(58,1,2,4)             2.5776         estimate D2E/DX2                !
 ! D9    D(3,2,36,34)          102.5248         estimate D2E/DX2                !
 ! D10   D(3,2,36,37)          -90.585          estimate D2E/DX2                !
 ! D11   D(4,2,36,34)          -79.6044         estimate D2E/DX2                !
 ! D12   D(4,2,36,37)           87.2857         estimate D2E/DX2                !
 ! D13   D(2,1,14,12)           -1.7377         estimate D2E/DX2                !
 ! D14   D(2,1,14,15)         -177.6591         estimate D2E/DX2                !
 ! D15   D(24,1,14,12)         -98.4732         estimate D2E/DX2                !
 ! D16   D(24,1,14,15)          85.6054         estimate D2E/DX2                !
 ! D17   D(36,1,14,12)        -178.6051         estimate D2E/DX2                !
 ! D18   D(36,1,14,15)           5.4735         estimate D2E/DX2                !
 ! D19   D(46,1,14,12)          85.1326         estimate D2E/DX2                !
 ! D20   D(46,1,14,15)         -90.7888         estimate D2E/DX2                !
 ! D21   D(12,14,58,56)         89.8199         estimate D2E/DX2                !
 ! D22   D(12,14,58,59)       -102.9652         estimate D2E/DX2                !
 ! D23   D(15,14,58,56)        -83.3993         estimate D2E/DX2                !
 ! D24   D(15,14,58,59)         83.8156         estimate D2E/DX2                !
 ! D25   D(2,1,24,25)          169.852          estimate D2E/DX2                !
 ! D26   D(2,1,24,26)           -7.9846         estimate D2E/DX2                !
 ! D27   D(14,1,24,25)        -109.4701         estimate D2E/DX2                !
 ! D28   D(14,1,24,26)          72.6933         estimate D2E/DX2                !
 ! D29   D(36,1,24,25)          -9.4405         estimate D2E/DX2                !
 ! D30   D(36,1,24,26)         172.7229         estimate D2E/DX2                !
 ! D31   D(58,1,24,25)          72.9613         estimate D2E/DX2                !
 ! D32   D(58,1,24,26)        -104.8753         estimate D2E/DX2                !
 ! D33   D(25,24,46,47)         67.4273         estimate D2E/DX2                !
 ! D34   D(25,24,46,48)       -109.4066         estimate D2E/DX2                !
 ! D35   D(26,24,46,47)       -107.3532         estimate D2E/DX2                !
 ! D36   D(26,24,46,48)         75.813          estimate D2E/DX2                !
 ! D37   D(14,1,36,34)         100.6237         estimate D2E/DX2                !
 ! D38   D(14,1,36,37)         -92.1843         estimate D2E/DX2                !
 ! D39   D(24,1,36,34)          11.2138         estimate D2E/DX2                !
 ! D40   D(24,1,36,37)         178.4058         estimate D2E/DX2                !
 ! D41   D(46,1,36,34)        -163.1289         estimate D2E/DX2                !
 ! D42   D(46,1,36,37)           4.0631         estimate D2E/DX2                !
 ! D43   D(58,1,36,34)         -83.7576         estimate D2E/DX2                !
 ! D44   D(58,1,36,37)          83.4344         estimate D2E/DX2                !
 ! D45   D(2,1,46,47)         -101.1868         estimate D2E/DX2                !
 ! D46   D(2,1,46,48)           79.7927         estimate D2E/DX2                !
 ! D47   D(14,1,46,47)         178.4581         estimate D2E/DX2                !
 ! D48   D(14,1,46,48)          -0.5625         estimate D2E/DX2                !
 ! D49   D(36,1,46,47)          77.8096         estimate D2E/DX2                !
 ! D50   D(36,1,46,48)        -101.211          estimate D2E/DX2                !
 ! D51   D(58,1,46,47)          -4.3088         estimate D2E/DX2                !
 ! D52   D(58,1,46,48)         176.6706         estimate D2E/DX2                !
 ! D53   D(2,1,58,56)           92.5955         estimate D2E/DX2                !
 ! D54   D(2,1,58,59)         -101.628          estimate D2E/DX2                !
 ! D55   D(24,1,58,56)        -170.0979         estimate D2E/DX2                !
 ! D56   D(24,1,58,59)          -4.3214         estimate D2E/DX2                !
 ! D57   D(36,1,58,56)         -90.5569         estimate D2E/DX2                !
 ! D58   D(36,1,58,59)          75.2196         estimate D2E/DX2                !
 ! D59   D(46,1,58,56)           5.9865         estimate D2E/DX2                !
 ! D60   D(46,1,58,59)         171.763          estimate D2E/DX2                !
 ! D61   D(1,2,3,5)            177.8079         estimate D2E/DX2                !
 ! D62   D(1,2,3,12)            -2.034          estimate D2E/DX2                !
 ! D63   D(4,2,3,5)              1.4275         estimate D2E/DX2                !
 ! D64   D(4,2,3,12)          -178.4144         estimate D2E/DX2                !
 ! D65   D(1,2,4,6)           -177.2603         estimate D2E/DX2                !
 ! D66   D(1,2,4,7)              2.3971         estimate D2E/DX2                !
 ! D67   D(3,2,4,6)             -1.4327         estimate D2E/DX2                !
 ! D68   D(3,2,4,7)            178.2248         estimate D2E/DX2                !
 ! D69   D(2,3,5,8)             -0.4784         estimate D2E/DX2                !
 ! D70   D(2,3,5,9)            179.811          estimate D2E/DX2                !
 ! D71   D(12,3,5,8)           179.3475         estimate D2E/DX2                !
 ! D72   D(12,3,5,9)            -0.3631         estimate D2E/DX2                !
 ! D73   D(2,3,12,13)         -179.1277         estimate D2E/DX2                !
 ! D74   D(2,3,12,14)            0.6006         estimate D2E/DX2                !
 ! D75   D(5,3,12,13)            1.0331         estimate D2E/DX2                !
 ! D76   D(5,3,12,14)         -179.2386         estimate D2E/DX2                !
 ! D77   D(2,4,6,8)              0.5003         estimate D2E/DX2                !
 ! D78   D(2,4,6,10)          -179.6374         estimate D2E/DX2                !
 ! D79   D(7,4,6,8)           -179.1451         estimate D2E/DX2                !
 ! D80   D(7,4,6,10)             0.7172         estimate D2E/DX2                !
 ! D81   D(3,5,8,6)             -0.4769         estimate D2E/DX2                !
 ! D82   D(3,5,8,11)           179.9409         estimate D2E/DX2                !
 ! D83   D(9,5,8,6)            179.2258         estimate D2E/DX2                !
 ! D84   D(9,5,8,11)            -0.3565         estimate D2E/DX2                !
 ! D85   D(4,6,8,5)              0.4753         estimate D2E/DX2                !
 ! D86   D(4,6,8,11)          -179.9433         estimate D2E/DX2                !
 ! D87   D(10,6,8,5)          -179.3839         estimate D2E/DX2                !
 ! D88   D(10,6,8,11)            0.1976         estimate D2E/DX2                !
 ! D89   D(3,12,14,1)            1.1388         estimate D2E/DX2                !
 ! D90   D(3,12,14,15)         177.3158         estimate D2E/DX2                !
 ! D91   D(13,12,14,1)        -179.1372         estimate D2E/DX2                !
 ! D92   D(13,12,14,15)         -2.9602         estimate D2E/DX2                !
 ! D93   D(1,14,15,16)         123.4242         estimate D2E/DX2                !
 ! D94   D(1,14,15,17)         -53.5785         estimate D2E/DX2                !
 ! D95   D(12,14,15,16)        -52.3084         estimate D2E/DX2                !
 ! D96   D(12,14,15,17)        130.6888         estimate D2E/DX2                !
 ! D97   D(14,15,16,18)       -175.6626         estimate D2E/DX2                !
 ! D98   D(14,15,16,19)          2.6359         estimate D2E/DX2                !
 ! D99   D(17,15,16,18)          1.3156         estimate D2E/DX2                !
 ! D100  D(17,15,16,19)        179.6141         estimate D2E/DX2                !
 ! D101  D(14,15,17,20)        175.8533         estimate D2E/DX2                !
 ! D102  D(14,15,17,21)         -6.2298         estimate D2E/DX2                !
 ! D103  D(16,15,17,20)         -1.1924         estimate D2E/DX2                !
 ! D104  D(16,15,17,21)        176.7246         estimate D2E/DX2                !
 ! D105  D(15,16,18,22)         -0.4172         estimate D2E/DX2                !
 ! D106  D(15,16,18,23)        178.764          estimate D2E/DX2                !
 ! D107  D(19,16,18,22)       -178.7062         estimate D2E/DX2                !
 ! D108  D(19,16,18,23)          0.475          estimate D2E/DX2                !
 ! D109  D(15,17,20,22)          0.1901         estimate D2E/DX2                !
 ! D110  D(15,17,20,74)       -178.8906         estimate D2E/DX2                !
 ! D111  D(21,17,20,22)       -177.7573         estimate D2E/DX2                !
 ! D112  D(21,17,20,74)          3.162          estimate D2E/DX2                !
 ! D113  D(16,18,22,20)         -0.5716         estimate D2E/DX2                !
 ! D114  D(16,18,22,79)        179.2545         estimate D2E/DX2                !
 ! D115  D(23,18,22,20)       -179.7509         estimate D2E/DX2                !
 ! D116  D(23,18,22,79)          0.0753         estimate D2E/DX2                !
 ! D117  D(17,20,22,18)          0.6931         estimate D2E/DX2                !
 ! D118  D(17,20,22,79)       -179.1359         estimate D2E/DX2                !
 ! D119  D(74,20,22,18)        179.7612         estimate D2E/DX2                !
 ! D120  D(74,20,22,79)         -0.0679         estimate D2E/DX2                !
 ! D121  D(17,20,74,75)          6.2158         estimate D2E/DX2                !
 ! D122  D(17,20,74,76)       -174.2132         estimate D2E/DX2                !
 ! D123  D(22,20,74,75)       -172.894          estimate D2E/DX2                !
 ! D124  D(22,20,74,76)          6.6769         estimate D2E/DX2                !
 ! D125  D(1,24,25,27)        -176.3651         estimate D2E/DX2                !
 ! D126  D(1,24,25,34)           6.5541         estimate D2E/DX2                !
 ! D127  D(26,24,25,27)          1.682          estimate D2E/DX2                !
 ! D128  D(26,24,25,34)       -175.3988         estimate D2E/DX2                !
 ! D129  D(1,24,26,28)         176.4497         estimate D2E/DX2                !
 ! D130  D(1,24,26,29)          -2.7411         estimate D2E/DX2                !
 ! D131  D(25,24,26,28)         -1.3026         estimate D2E/DX2                !
 ! D132  D(25,24,26,29)        179.5066         estimate D2E/DX2                !
 ! D133  D(24,25,27,30)         -0.7404         estimate D2E/DX2                !
 ! D134  D(24,25,27,31)        179.9631         estimate D2E/DX2                !
 ! D135  D(34,25,27,30)        176.0553         estimate D2E/DX2                !
 ! D136  D(34,25,27,31)         -3.2412         estimate D2E/DX2                !
 ! D137  D(24,25,34,35)        179.7421         estimate D2E/DX2                !
 ! D138  D(24,25,34,36)          3.0915         estimate D2E/DX2                !
 ! D139  D(27,25,34,35)          2.7051         estimate D2E/DX2                !
 ! D140  D(27,25,34,36)       -173.9454         estimate D2E/DX2                !
 ! D141  D(24,26,28,30)          0.0045         estimate D2E/DX2                !
 ! D142  D(24,26,28,32)       -179.8095         estimate D2E/DX2                !
 ! D143  D(29,26,28,30)        179.1667         estimate D2E/DX2                !
 ! D144  D(29,26,28,32)         -0.6473         estimate D2E/DX2                !
 ! D145  D(25,27,30,28)         -0.5849         estimate D2E/DX2                !
 ! D146  D(25,27,30,33)        179.9895         estimate D2E/DX2                !
 ! D147  D(31,27,30,28)        178.6919         estimate D2E/DX2                !
 ! D148  D(31,27,30,33)         -0.7338         estimate D2E/DX2                !
 ! D149  D(26,28,30,27)          0.9456         estimate D2E/DX2                !
 ! D150  D(26,28,30,33)       -179.6297         estimate D2E/DX2                !
 ! D151  D(32,28,30,27)       -179.2444         estimate D2E/DX2                !
 ! D152  D(32,28,30,33)          0.1804         estimate D2E/DX2                !
 ! D153  D(25,34,36,1)         -10.9999         estimate D2E/DX2                !
 ! D154  D(25,34,36,37)       -178.8606         estimate D2E/DX2                !
 ! D155  D(35,34,36,1)         172.4282         estimate D2E/DX2                !
 ! D156  D(35,34,36,37)          4.5676         estimate D2E/DX2                !
 ! D157  D(1,36,37,38)        -124.9012         estimate D2E/DX2                !
 ! D158  D(1,36,37,39)          52.6245         estimate D2E/DX2                !
 ! D159  D(34,36,37,38)         41.5201         estimate D2E/DX2                !
 ! D160  D(34,36,37,39)       -140.9542         estimate D2E/DX2                !
 ! D161  D(36,37,38,40)        177.0964         estimate D2E/DX2                !
 ! D162  D(36,37,38,41)         -1.8881         estimate D2E/DX2                !
 ! D163  D(39,37,38,40)         -0.4            estimate D2E/DX2                !
 ! D164  D(39,37,38,41)       -179.3845         estimate D2E/DX2                !
 ! D165  D(36,37,39,42)       -177.371          estimate D2E/DX2                !
 ! D166  D(36,37,39,43)          3.2925         estimate D2E/DX2                !
 ! D167  D(38,37,39,42)          0.2075         estimate D2E/DX2                !
 ! D168  D(38,37,39,43)       -179.1291         estimate D2E/DX2                !
 ! D169  D(37,38,40,44)          0.1259         estimate D2E/DX2                !
 ! D170  D(37,38,40,45)       -179.2874         estimate D2E/DX2                !
 ! D171  D(41,38,40,44)        179.109          estimate D2E/DX2                !
 ! D172  D(41,38,40,45)         -0.3043         estimate D2E/DX2                !
 ! D173  D(37,39,42,44)          0.2653         estimate D2E/DX2                !
 ! D174  D(37,39,42,71)        178.9093         estimate D2E/DX2                !
 ! D175  D(43,39,42,44)        179.608          estimate D2E/DX2                !
 ! D176  D(43,39,42,71)         -1.7481         estimate D2E/DX2                !
 ! D177  D(38,40,44,42)          0.3304         estimate D2E/DX2                !
 ! D178  D(38,40,44,78)       -179.3156         estimate D2E/DX2                !
 ! D179  D(45,40,44,42)        179.7428         estimate D2E/DX2                !
 ! D180  D(45,40,44,78)          0.0968         estimate D2E/DX2                !
 ! D181  D(39,42,44,40)         -0.5335         estimate D2E/DX2                !
 ! D182  D(39,42,44,78)        179.1184         estimate D2E/DX2                !
 ! D183  D(71,42,44,40)       -179.1609         estimate D2E/DX2                !
 ! D184  D(71,42,44,78)          0.491          estimate D2E/DX2                !
 ! D185  D(39,42,71,72)        178.4892         estimate D2E/DX2                !
 ! D186  D(39,42,71,73)         -1.8066         estimate D2E/DX2                !
 ! D187  D(44,42,71,72)         -2.8247         estimate D2E/DX2                !
 ! D188  D(44,42,71,73)        176.8796         estimate D2E/DX2                !
 ! D189  D(1,46,47,49)        -177.2735         estimate D2E/DX2                !
 ! D190  D(1,46,47,56)           2.2195         estimate D2E/DX2                !
 ! D191  D(48,46,47,49)          1.851          estimate D2E/DX2                !
 ! D192  D(48,46,47,56)       -178.656          estimate D2E/DX2                !
 ! D193  D(1,46,48,50)         177.4151         estimate D2E/DX2                !
 ! D194  D(1,46,48,51)          -1.3912         estimate D2E/DX2                !
 ! D195  D(47,46,48,50)         -1.5691         estimate D2E/DX2                !
 ! D196  D(47,46,48,51)        179.6246         estimate D2E/DX2                !
 ! D197  D(46,47,49,52)         -0.7604         estimate D2E/DX2                !
 ! D198  D(46,47,49,53)        179.3378         estimate D2E/DX2                !
 ! D199  D(56,47,49,52)        179.7939         estimate D2E/DX2                !
 ! D200  D(56,47,49,53)         -0.1079         estimate D2E/DX2                !
 ! D201  D(46,47,56,57)       -177.2934         estimate D2E/DX2                !
 ! D202  D(46,47,56,58)          2.9569         estimate D2E/DX2                !
 ! D203  D(49,47,56,57)          2.194          estimate D2E/DX2                !
 ! D204  D(49,47,56,58)       -177.5557         estimate D2E/DX2                !
 ! D205  D(46,48,50,52)          0.2133         estimate D2E/DX2                !
 ! D206  D(46,48,50,54)       -179.0963         estimate D2E/DX2                !
 ! D207  D(51,48,50,52)        178.9842         estimate D2E/DX2                !
 ! D208  D(51,48,50,54)         -0.3255         estimate D2E/DX2                !
 ! D209  D(47,49,52,50)         -0.631          estimate D2E/DX2                !
 ! D210  D(47,49,52,55)        179.6973         estimate D2E/DX2                !
 ! D211  D(53,49,52,50)        179.268          estimate D2E/DX2                !
 ! D212  D(53,49,52,55)         -0.4036         estimate D2E/DX2                !
 ! D213  D(48,50,52,49)          0.9009         estimate D2E/DX2                !
 ! D214  D(48,50,52,55)       -179.4282         estimate D2E/DX2                !
 ! D215  D(54,50,52,49)       -179.8061         estimate D2E/DX2                !
 ! D216  D(54,50,52,55)         -0.1352         estimate D2E/DX2                !
 ! D217  D(47,56,58,1)          -6.6132         estimate D2E/DX2                !
 ! D218  D(47,56,58,59)       -173.2003         estimate D2E/DX2                !
 ! D219  D(57,56,58,1)         173.642          estimate D2E/DX2                !
 ! D220  D(57,56,58,59)          7.0549         estimate D2E/DX2                !
 ! D221  D(1,58,59,60)        -114.749          estimate D2E/DX2                !
 ! D222  D(1,58,59,61)          61.5808         estimate D2E/DX2                !
 ! D223  D(56,58,59,60)         50.3413         estimate D2E/DX2                !
 ! D224  D(56,58,59,61)       -133.3289         estimate D2E/DX2                !
 ! D225  D(58,59,60,62)        175.7875         estimate D2E/DX2                !
 ! D226  D(58,59,60,63)         -3.0732         estimate D2E/DX2                !
 ! D227  D(61,59,60,62)         -0.5659         estimate D2E/DX2                !
 ! D228  D(61,59,60,63)       -179.4266         estimate D2E/DX2                !
 ! D229  D(58,59,61,64)       -176.6704         estimate D2E/DX2                !
 ! D230  D(58,59,61,65)          3.9601         estimate D2E/DX2                !
 ! D231  D(60,59,61,64)         -0.3588         estimate D2E/DX2                !
 ! D232  D(60,59,61,65)       -179.7283         estimate D2E/DX2                !
 ! D233  D(59,60,62,66)          0.7858         estimate D2E/DX2                !
 ! D234  D(59,60,62,68)       -178.5229         estimate D2E/DX2                !
 ! D235  D(63,60,62,66)        179.6541         estimate D2E/DX2                !
 ! D236  D(63,60,62,68)          0.3455         estimate D2E/DX2                !
 ! D237  D(59,61,64,66)          1.1055         estimate D2E/DX2                !
 ! D238  D(59,61,64,67)       -179.5034         estimate D2E/DX2                !
 ! D239  D(65,61,64,66)       -179.5286         estimate D2E/DX2                !
 ! D240  D(65,61,64,67)         -0.1375         estimate D2E/DX2                !
 ! D241  D(60,62,66,64)         -0.0617         estimate D2E/DX2                !
 ! D242  D(60,62,66,77)       -179.7363         estimate D2E/DX2                !
 ! D243  D(68,62,66,64)        179.24           estimate D2E/DX2                !
 ! D244  D(68,62,66,77)         -0.4346         estimate D2E/DX2                !
 ! D245  D(60,62,68,69)          4.062          estimate D2E/DX2                !
 ! D246  D(60,62,68,70)       -176.0334         estimate D2E/DX2                !
 ! D247  D(66,62,68,69)       -175.2689         estimate D2E/DX2                !
 ! D248  D(66,62,68,70)          4.6356         estimate D2E/DX2                !
 ! D249  D(61,64,66,62)         -0.8906         estimate D2E/DX2                !
 ! D250  D(61,64,66,77)        178.7785         estimate D2E/DX2                !
 ! D251  D(67,64,66,62)        179.719          estimate D2E/DX2                !
 ! D252  D(67,64,66,77)         -0.612          estimate D2E/DX2                !
 --------------------------------------------------------------------------------
 Trust Radius=3.00D-01 FncErr=5.00D-06 GrdErr=5.00D-06 EigMax=2.50D+02 EigMin=1.00D-04
 Number of steps in this run=    474 maximum allowed number of steps=    474.
 GradGradGradGradGradGradGradGradGradGradGradGradGradGradGradGradGradGrad

 Leave Link  103 at Sun Oct 15 06:12:44 2023, MaxMem=  1887436800 cpu:               0.8 elap:               0.1
 (Enter /share/apps/g16/E6B-113X_avx2/g16/l202.exe)
 Symmetry turned off by external request.
 Stoichiometry    C36H27FeN9O6
                          Input orientation:                          
 ---------------------------------------------------------------------
 Center     Atomic      Atomic             Coordinates (Angstroms)
 Number     Number       Type             X           Y           Z
 ---------------------------------------------------------------------
      1         26           0       -0.184434    1.056919   -0.144835
      2          7           0       -0.451419    2.995219   -0.513428
      3          6           0        0.488758    3.800744    0.054910
      4          6           0       -1.380662    3.555416   -1.295196
      5          6           0        0.495301    5.183312   -0.127629
      6          6           0       -1.434423    4.929920   -1.521138
      7          1           0       -2.105118    2.885860   -1.763059
      8          6           0       -0.487540    5.759153   -0.926419
      9          1           0        1.270315    5.781190    0.353718
     10          1           0       -2.218169    5.332577   -2.163485
     11          1           0       -0.510086    6.837902   -1.087914
     12          6           0        1.461404    3.091447    0.847300
     13          1           0        2.261880    3.629665    1.368497
     14          7           0        1.336383    1.802411    0.913336
     15          6           0        2.290507    1.041579    1.627144
     16          6           0        3.663152    1.174227    1.372162
     17          6           0        1.845967    0.100266    2.555659
     18          6           0        4.579425    0.349767    2.023584
     19          1           0        4.008235    1.908214    0.639491
     20          6           0        2.781619   -0.704714    3.190144
     21          1           0        0.793233    0.012251    2.811337
     22          6           0        4.148629   -0.606085    2.938087
     23          1           0        5.643530    0.447813    1.802600
     24          7           0       -1.324766    0.966185    1.482344
     25          6           0       -1.567433   -0.302342    1.920273
     26          6           0       -1.888411    1.985869    2.138841
     27          6           0       -2.406096   -0.570178    3.001804
     28          6           0       -2.731297    1.791500    3.232272
     29          1           0       -1.672118    2.992666    1.773728
     30          6           0       -3.003881    0.496640    3.666076
     31          1           0       -2.565738   -1.604728    3.309908
     32          1           0       -3.166689    2.659005    3.729052
     33          1           0       -3.665352    0.320948    4.515809
     34          6           0       -0.830748   -1.318540    1.209579
     35          1           0       -0.941689   -2.376785    1.477071
     36          7           0        0.002425   -0.908579    0.302725
     37          6           0        0.743120   -1.841566   -0.453014
     38          6           0        0.162800   -3.021186   -0.945205
     39          6           0        2.074802   -1.546827   -0.755586
     40          6           0        0.909558   -3.890022   -1.739034
     41          1           0       -0.881447   -3.249386   -0.718594
     42          6           0        2.793830   -2.433059   -1.544912
     43          1           0        2.550607   -0.645460   -0.373852
     44          6           0        2.235231   -3.604716   -2.052178
     45          1           0        0.445636   -4.798543   -2.126297
     46          7           0        0.832057    0.948352   -1.873231
     47          6           0        0.111656    0.427151   -2.904075
     48          6           0        2.099895    1.303260   -2.105794
     49          6           0        0.659343    0.218928   -4.169790
     50          6           0        2.712470    1.129761   -3.346286
     51          1           0        2.661065    1.725292   -1.269654
     52          6           0        1.987054    0.570623   -4.393836
     53          1           0        0.036996   -0.212233   -4.955087
     54          1           0        3.754608    1.425694   -3.469744
     55          1           0        2.445660    0.415574   -5.371597
     56          6           0       -1.251757    0.103254   -2.565968
     57          1           0       -1.913000   -0.363905   -3.305886
     58          7           0       -1.648856    0.392034   -1.366889
     59          6           0       -2.925692   -0.032816   -0.936095
     60          6           0       -3.296486   -1.368859   -1.102599
     61          6           0       -3.787902    0.855622   -0.276739
     62          6           0       -4.520992   -1.788286   -0.592744
     63          1           0       -2.636466   -2.076826   -1.603922
     64          6           0       -5.014949    0.410398    0.205154
     65          1           0       -3.495538    1.899532   -0.153105
     66          6           0       -5.393215   -0.923069    0.060804
     67          1           0       -5.682706    1.110841    0.709696
     68          7           0       -4.889319   -3.202640   -0.742845
     69          8           0       -4.066049   -3.955139   -1.241911
     70          8           0       -5.995735   -3.545476   -0.358906
     71          7           0        4.185726   -2.095971   -1.873874
     72          8           0        4.819656   -2.894032   -2.544853
     73          8           0        4.627632   -1.033283   -1.461613
     74          7           0        2.293980   -1.707528    4.146619
     75          8           0        1.084697   -1.858193    4.245952
     76          8           0        3.123358   -2.338195    4.781233
     77          1           0       -6.341316   -1.294072    0.449007
     78          1           0        2.830732   -4.266585   -2.680162
     79          1           0        4.848041   -1.267668    3.448301
 ---------------------------------------------------------------------
 Rotational constants (GHZ):           0.0702516           0.0554828           0.0529604
 Leave Link  202 at Sun Oct 15 06:12:44 2023, MaxMem=  1887436800 cpu:               0.1 elap:               0.0
 (Enter /share/apps/g16/E6B-113X_avx2/g16/l301.exe)
 Standard basis: def2SVP (5D, 7F)
 Ernie: Thresh=  0.10000D-02 Tol=  0.10000D-05 Strict=F.
   880 basis functions,  1545 primitive gaussians,   936 cartesian basis functions
   189 alpha electrons      189 beta electrons
       nuclear repulsion energy      8281.1073275289 Hartrees.
 IExCor= 4235 DFT=T Ex+Corr=M06 ExCW=0 ScaHFX=  0.270000
 ScaDFX=  1.000000  1.000000  1.000000  1.000000 ScalE2=  1.000000  1.000000
 IRadAn=      5 IRanWt=     -1 IRanGd=            0 ICorTp=0 IEmpDi=  4
 NAtoms=   79 NActive=   79 NUniq=   79 SFac= 1.00D+00 NAtFMM=   60 NAOKFM=T Big=T
 Integral buffers will be    131072 words long.
 Raffenetti 2 integral format.
 Two-electron integral symmetry is turned off.
 ------------------------------------------------------------------------------
 Polarizable Continuum Model (PCM)
 =================================
 Model                : PCM.
 Atomic radii         : SMD-Coulomb.
 Polarization charges : Total charges.
 Charge compensation  : None.
 Solution method      : On-the-fly selection.
 Cavity type          : VdW (van der Waals Surface) (Alpha=1.000).
 Cavity algorithm     : GePol (No added spheres)
                        Default sphere list used, NSphG=   79.
                        Lebedev-Laikov grids with approx.  5.0 points / Ang**2.
                        Smoothing algorithm: York/Karplus (Gamma=1.0000).
                        Polarization charges: spherical gaussians, with
                                              point-specific exponents (IZeta= 3).
                        Self-potential: point-specific (ISelfS= 7).
                        Self-field    : sphere-specific E.n sum rule (ISelfD= 2).
 1st derivatives      : Analytical E(r).r(x)/FMM algorithm (CHGder, D1EAlg=3).
                        Cavity 1st derivative terms included.
 Solvent              : Acetonitrile, Eps=  35.688000 Eps(inf)=   1.806874
 ------------------------------------------------------------------------------
 GePol: Number of generator spheres                  =      79
 GePol: Total number of spheres                      =      79
 GePol: Number of exposed spheres                    =      78 ( 98.73%)
 GePol: Number of points                             =    5797
 GePol: Average weight of points                     =       0.12
 GePol: Minimum weight of points                     =   0.20D-10
 GePol: Maximum weight of points                     =    0.21559
 GePol: Number of points with low weight             =     411
 GePol: Fraction of low-weight points (<1% of avg)   =       7.09%
 GePol: Cavity surface area                          =    666.661 Ang**2
 GePol: Cavity volume                                =    741.239 Ang**3
 ------------------------------------------------------------------------------
 Atomic radii for non-electrostatic terms: SMD-CDS.
 ------------------------------------------------------------------------------
 PCM non-electrostatic energy =        -0.0102311045 Hartrees.
 Nuclear repulsion after PCM non-electrostatic terms =     8281.0970964244 Hartrees.
 Leave Link  301 at Sun Oct 15 06:12:45 2023, MaxMem=  1887436800 cpu:               2.7 elap:               0.2
 (Enter /share/apps/g16/E6B-113X_avx2/g16/l302.exe)
 NPDir=0 NMtPBC=     1 NCelOv=     1 NCel=       1 NClECP=     1 NCelD=      1
         NCelK=      1 NCelE2=     1 NClLst=     1 CellRange=     0.0.
 One-electron integrals computed using PRISM.
   1 Symmetry operations used in ECPInt.
 ECPInt:  NShTT=   79401 NPrTT=  302260 LenC2=   66044 LenP2D=  157651.
 LDataN:  DoStor=T MaxTD1= 6 Len=  172
 NBasis=   880 RedAO= T EigKep=  2.13D-04  NBF=   880
 NBsUse=   880 1.00D-06 EigRej= -1.00D+00 NBFU=   880
 Precomputing XC quadrature grid using
 IXCGrd= 4 IRadAn=           5 IRanWt=          -1 IRanGd=           0 AccXCQ= 0.00D+00.
 Generated NRdTot=       0 NPtTot=           0 NUsed=           0 NTot=          32
 NSgBfM=   889   877   882   889   889 MxSgAt=    79 MxSgA2=    79.
 Leave Link  302 at Sun Oct 15 06:12:49 2023, MaxMem=  1887436800 cpu:              69.4 elap:               4.4
 (Enter /share/apps/g16/E6B-113X_avx2/g16/l303.exe)
 DipDrv:  MaxL=1.
 Leave Link  303 at Sun Oct 15 06:12:49 2023, MaxMem=  1887436800 cpu:               3.7 elap:               0.3
 (Enter /share/apps/g16/E6B-113X_avx2/g16/l401.exe)
 ExpMin= 3.37D-02 ExpMax= 6.09D+04 ExpMxC= 9.15D+03 IAcc=3 IRadAn=         5 AccDes= 0.00D+00
 Harris functional with IExCor= 1009 and IRadAn=       5 diagonalized for initial guess.
 HarFok:  IExCor= 1009 AccDes= 0.00D+00 IRadAn=         5 IDoV= 1 UseB2=F ITyADJ=14
 ICtDFT=  3500011 ScaDFX=  1.000000  1.000000  1.000000  1.000000
 FoFCou: FMM=F IPFlag=           0 FMFlag=      100000 FMFlg1=        2001
         NFxFlg=           0 DoJE=T BraDBF=F KetDBF=T FulRan=T
         wScrn=  0.000000 ICntrl=       500 IOpCl=  0 I1Cent=   200000004 NGrid=           0
         NMat0=    1 NMatS0=      1 NMatT0=    0 NMatD0=    1 NMtDS0=    0 NMtDT0=    0
 Symmetry not used in FoFCou.
 Harris En= -3591.04777673816    
 JPrj=0 DoOrth=F DoCkMO=F.
 Leave Link  401 at Sun Oct 15 06:13:04 2023, MaxMem=  1887436800 cpu:             237.6 elap:              14.9
 (Enter /share/apps/g16/E6B-113X_avx2/g16/l502.exe)
 Two-electron integral symmetry not used.
 Closed shell SCF:
 Using DIIS extrapolation, IDIIS=  1040.
 NGot=  1887436800 LenX=  1885662015 LenY=  1884784983
 Requested convergence on RMS density matrix=1.00D-08 within 128 cycles.
 Requested convergence on MAX density matrix=1.00D-06.
 Requested convergence on             energy=1.00D-06.
 No special actions if energy rises.
 Fock matrices will be formed incrementally for  20 cycles.

 Cycle   1  Pass 1  IDiag  1:
 FoFJK:  IHMeth= 1 ICntrl=       0 DoSepK=F KAlg= 0 I1Cent=           0 FoldK=F
 IRaf= 970000000 NMat=       1 IRICut=       1 DoRegI=T DoRafI=F ISym2E= 0 IDoP0=0 IntGTp=1.
 FoFCou: FMM=T IPFlag=           0 FMFlag=      100000 FMFlg1=        2001
         NFxFlg=           0 DoJE=F BraDBF=F KetDBF=F FulRan=T
         wScrn=  0.000000 ICntrl=         0 IOpCl=  0 I1Cent=           0 NGrid=           0
         NMat0=    1 NMatS0=      1 NMatT0=    0 NMatD0=    1 NMtDS0=    0 NMtDT0=    0
 Symmetry not used in FoFCou.
 FMM levels:  10  Number of levels for PrismC:   9
 Inv3:  Mode=1 IEnd=   100815627.
 Iteration    1 A*A^-1 deviation from unit magnitude is 4.44D-15 for   3768.
 Iteration    1 A*A^-1 deviation from orthogonality  is 9.77D-15 for   4671   3768.
 Iteration    1 A^-1*A deviation from unit magnitude is 3.33D-15 for    729.
 Iteration    1 A^-1*A deviation from orthogonality  is 8.19D-15 for   3109   3050.
 E= -3590.93724572096    
 DIIS: error= 3.44D-02 at cycle   1 NSaved=   1.
 NSaved= 1 IEnMin= 1 EnMin= -3590.93724572096     IErMin= 1 ErrMin= 3.44D-02
 ErrMax= 3.44D-02  0.00D+00 EMaxC= 1.00D-01 BMatC= 1.30D+00 BMatP= 1.30D+00
 IDIUse=3 WtCom= 6.56D-01 WtEn= 3.44D-01
 Coeff-Com:  0.100D+01
 Coeff-En:   0.100D+01
 Coeff:      0.100D+01
 Gap=     0.525 Goal=   None    Shift=    0.000
 GapD=    0.525 DampG=2.000 DampE=0.250 DampFc=0.5000 IDamp=-1.
 Damping current iteration by 5.00D-01
 RMSDP=3.82D-03 MaxDP=6.28D-01              OVMax= 4.76D-01

 Cycle   2  Pass 1  IDiag  1:
 RMSU=  1.89D-03    CP:  9.80D-01
 E= -3589.15751617555     Delta-E=        1.779729545415 Rises=F Damp=T
 DIIS: error= 2.82D-02 at cycle   2 NSaved=   2.
 NSaved= 2 IEnMin= 1 EnMin= -3590.93724572096     IErMin= 2 ErrMin= 2.82D-02
 ErrMax= 2.82D-02  0.00D+00 EMaxC= 1.00D-01 BMatC= 1.91D+00 BMatP= 1.30D+00
 IDIUse=2 WtCom= 0.00D+00 WtEn= 1.00D+00
 Coeff-En:   0.745D+00 0.255D+00
 Coeff:      0.745D+00 0.255D+00
 Gap=    -0.007 Goal=   None    Shift=    0.000
 RMSDP=1.56D-03 MaxDP=2.86D-01 DE= 1.78D+00 OVMax= 8.11D-01

 Cycle   3  Pass 1  IDiag  1:
 RMSU=  1.50D-03    CP:  9.69D-01  8.06D-01
 E= -3591.30886215804     Delta-E=       -2.151345982493 Rises=F Damp=F
 DIIS: error= 4.00D-02 at cycle   3 NSaved=   3.
 NSaved= 3 IEnMin= 3 EnMin= -3591.30886215804     IErMin= 2 ErrMin= 2.82D-02
 ErrMax= 4.00D-02  0.00D+00 EMaxC= 1.00D-01 BMatC= 9.22D-01 BMatP= 1.30D+00
 IDIUse=3 WtCom= 6.00D-01 WtEn= 4.00D-01
 Coeff-Com:  0.438D+00 0.143D+00 0.419D+00
 Coeff-En:   0.407D+00 0.000D+00 0.593D+00
 Coeff:      0.426D+00 0.858D-01 0.488D+00
 Gap=     0.172 Goal=   None    Shift=    0.000
 RMSDP=1.02D-03 MaxDP=1.20D-01 DE=-2.15D+00 OVMax= 1.66D-01

 Cycle   4  Pass 1  IDiag  1:
 RMSU=  6.79D-04    CP:  9.72D-01  5.35D-01  6.27D-01
 E= -3591.94325081248     Delta-E=       -0.634388654436 Rises=F Damp=F
 DIIS: error= 1.02D-02 at cycle   4 NSaved=   4.
 NSaved= 4 IEnMin= 4 EnMin= -3591.94325081248     IErMin= 4 ErrMin= 1.02D-02
 ErrMax= 1.02D-02  0.00D+00 EMaxC= 1.00D-01 BMatC= 1.22D-01 BMatP= 9.22D-01
 IDIUse=3 WtCom= 8.98D-01 WtEn= 1.02D-01
 Coeff-Com:  0.203D+00-0.288D-01 0.312D+00 0.514D+00
 Coeff-En:   0.000D+00 0.000D+00 0.827D-02 0.992D+00
 Coeff:      0.182D+00-0.258D-01 0.281D+00 0.563D+00
 Gap=     0.134 Goal=   None    Shift=    0.000
 RMSDP=4.31D-04 MaxDP=5.22D-02 DE=-6.34D-01 OVMax= 8.25D-02

 Cycle   5  Pass 1  IDiag  1:
 RMSU=  2.86D-04    CP:  9.76D-01  5.06D-01  6.91D-01  5.62D-01
 E= -3592.00605490945     Delta-E=       -0.062804096973 Rises=F Damp=F
 DIIS: error= 4.25D-03 at cycle   5 NSaved=   5.
 NSaved= 5 IEnMin= 5 EnMin= -3592.00605490945     IErMin= 5 ErrMin= 4.25D-03
 ErrMax= 4.25D-03  0.00D+00 EMaxC= 1.00D-01 BMatC= 3.11D-02 BMatP= 1.22D-01
 IDIUse=3 WtCom= 9.58D-01 WtEn= 4.25D-02
 Coeff-Com:  0.431D-01-0.430D-02 0.910D-01 0.362D+00 0.509D+00
 Coeff-En:   0.000D+00 0.000D+00 0.000D+00 0.266D+00 0.734D+00
 Coeff:      0.412D-01-0.412D-02 0.871D-01 0.358D+00 0.518D+00
 Gap=     0.142 Goal=   None    Shift=    0.000
 RMSDP=2.25D-04 MaxDP=3.29D-02 DE=-6.28D-02 OVMax= 5.63D-02

 Cycle   6  Pass 1  IDiag  1:
 RMSU=  1.29D-04    CP:  9.75D-01  5.21D-01  6.71D-01  7.24D-01  5.05D-01
 E= -3592.02469189434     Delta-E=       -0.018636984891 Rises=F Damp=F
 DIIS: error= 1.59D-03 at cycle   6 NSaved=   6.
 NSaved= 6 IEnMin= 6 EnMin= -3592.02469189434     IErMin= 6 ErrMin= 1.59D-03
 ErrMax= 1.59D-03  0.00D+00 EMaxC= 1.00D-01 BMatC= 5.02D-03 BMatP= 3.11D-02
 IDIUse=3 WtCom= 9.84D-01 WtEn= 1.59D-02
 Coeff-Com: -0.982D-03-0.355D-02 0.670D-02 0.146D+00 0.382D+00 0.471D+00
 Coeff-En:   0.000D+00 0.000D+00 0.000D+00 0.000D+00 0.183D+00 0.817D+00
 Coeff:     -0.966D-03-0.350D-02 0.659D-02 0.143D+00 0.378D+00 0.476D+00
 Gap=     0.138 Goal=   None    Shift=    0.000
 RMSDP=6.81D-05 MaxDP=6.36D-03 DE=-1.86D-02 OVMax= 9.21D-03

 Cycle   7  Pass 1  IDiag  1:
 RMSU=  5.08D-05    CP:  9.75D-01  5.23D-01  6.76D-01  7.23D-01  5.97D-01
                    CP:  7.23D-01
 E= -3592.02803140177     Delta-E=       -0.003339507430 Rises=F Damp=F
 DIIS: error= 3.31D-04 at cycle   7 NSaved=   7.
 NSaved= 7 IEnMin= 7 EnMin= -3592.02803140177     IErMin= 7 ErrMin= 3.31D-04
 ErrMax= 3.31D-04  0.00D+00 EMaxC= 1.00D-01 BMatC= 4.30D-04 BMatP= 5.02D-03
 IDIUse=3 WtCom= 9.97D-01 WtEn= 3.31D-03
 Coeff-Com: -0.705D-02-0.304D-02-0.133D-01 0.693D-02 0.140D+00 0.234D+00
 Coeff-Com:  0.642D+00
 Coeff-En:   0.000D+00 0.000D+00 0.000D+00 0.000D+00 0.000D+00 0.000D+00
 Coeff-En:   0.100D+01
 Coeff:     -0.703D-02-0.303D-02-0.132D-01 0.691D-02 0.140D+00 0.233D+00
 Coeff:      0.644D+00
 Gap=     0.137 Goal=   None    Shift=    0.000
 RMSDP=2.83D-05 MaxDP=1.46D-03 DE=-3.34D-03 OVMax= 3.52D-03

 Cycle   8  Pass 1  IDiag  1:
 RMSU=  2.18D-05    CP:  9.75D-01  5.20D-01  6.79D-01  7.26D-01  6.28D-01
                    CP:  8.13D-01  8.54D-01
 E= -3592.02836456447     Delta-E=       -0.000333162699 Rises=F Damp=F
 DIIS: error= 2.10D-04 at cycle   8 NSaved=   8.
 NSaved= 8 IEnMin= 8 EnMin= -3592.02836456447     IErMin= 8 ErrMin= 2.10D-04
 ErrMax= 2.10D-04  0.00D+00 EMaxC= 1.00D-01 BMatC= 9.61D-05 BMatP= 4.30D-04
 IDIUse=3 WtCom= 9.98D-01 WtEn= 2.10D-03
 Coeff-Com: -0.183D-02-0.113D-02-0.723D-02-0.226D-01 0.245D-01 0.253D-01
 Coeff-Com:  0.322D+00 0.661D+00
 Coeff-En:   0.000D+00 0.000D+00 0.000D+00 0.000D+00 0.000D+00 0.000D+00
 Coeff-En:   0.000D+00 0.100D+01
 Coeff:     -0.183D-02-0.113D-02-0.721D-02-0.225D-01 0.244D-01 0.253D-01
 Coeff:      0.322D+00 0.661D+00
 Gap=     0.136 Goal=   None    Shift=    0.000
 RMSDP=1.23D-05 MaxDP=9.81D-04 DE=-3.33D-04 OVMax= 1.78D-03

 Cycle   9  Pass 1  IDiag  1:
 RMSU=  9.07D-06    CP:  9.75D-01  5.20D-01  6.79D-01  7.24D-01  6.43D-01
                    CP:  8.25D-01  9.64D-01  8.24D-01
 E= -3592.02843235488     Delta-E=       -0.000067790414 Rises=F Damp=F
 DIIS: error= 8.41D-05 at cycle   9 NSaved=   9.
 NSaved= 9 IEnMin= 9 EnMin= -3592.02843235488     IErMin= 9 ErrMin= 8.41D-05
 ErrMax= 8.41D-05  0.00D+00 EMaxC= 1.00D-01 BMatC= 1.73D-05 BMatP= 9.61D-05
 IDIUse=1 WtCom= 1.00D+00 WtEn= 0.00D+00
 Coeff-Com:  0.347D-03-0.623D-03-0.212D-02-0.164D-01-0.602D-02-0.263D-01
 Coeff-Com:  0.841D-01 0.380D+00 0.587D+00
 Coeff:      0.347D-03-0.623D-03-0.212D-02-0.164D-01-0.602D-02-0.263D-01
 Coeff:      0.841D-01 0.380D+00 0.587D+00
 Gap=     0.136 Goal=   None    Shift=    0.000
 RMSDP=4.77D-06 MaxDP=3.76D-04 DE=-6.78D-05 OVMax= 7.89D-04

 Cycle  10  Pass 1  IDiag  1:
 RMSU=  3.56D-06    CP:  9.75D-01  5.20D-01  6.79D-01  7.24D-01  6.48D-01
                    CP:  8.33D-01  9.87D-01  8.97D-01  8.26D-01
 E= -3592.02844392793     Delta-E=       -0.000011573047 Rises=F Damp=F
 DIIS: error= 6.07D-05 at cycle  10 NSaved=  10.
 NSaved=10 IEnMin=10 EnMin= -3592.02844392793     IErMin=10 ErrMin= 6.07D-05
 ErrMax= 6.07D-05  0.00D+00 EMaxC= 1.00D-01 BMatC= 3.36D-06 BMatP= 1.73D-05
 IDIUse=1 WtCom= 1.00D+00 WtEn= 0.00D+00
 Coeff-Com:  0.579D-03-0.378D-03-0.310D-03-0.816D-02-0.743D-02-0.231D-01
 Coeff-Com:  0.262D-02 0.147D+00 0.383D+00 0.507D+00
 Coeff:      0.579D-03-0.378D-03-0.310D-03-0.816D-02-0.743D-02-0.231D-01
 Coeff:      0.262D-02 0.147D+00 0.383D+00 0.507D+00
 Gap=     0.136 Goal=   None    Shift=    0.000
 RMSDP=2.15D-06 MaxDP=1.97D-04 DE=-1.16D-05 OVMax= 4.61D-04

 Cycle  11  Pass 1  IDiag  1:
 RMSU=  1.72D-06    CP:  9.75D-01  5.20D-01  6.79D-01  7.24D-01  6.49D-01
                    CP:  8.35D-01  9.96D-01  9.26D-01  8.71D-01  8.31D-01
[...]
      5   0.176830D-02  0.136559D-02  0.200732D-02  0.108743D-02 -0.237481D-02
      6   0.206352D-02 -0.171619D-02  0.508890D-03  0.132541D-01  0.591599D-03
      7  -0.188040D-02 -0.159718D-02  0.987213D-03 -0.482622D-03  0.481416D-02
      8   0.635838D+00 -0.470407D+00  0.220059D+01 -0.214426D+00 -0.640537D-01
      9   0.910008D+00 -0.207968D+01 -0.664186D+00 -0.282335D+00  0.204839D+00
     10  -0.206206D+01 -0.109003D+01  0.327304D+00 -0.104056D+00 -0.554863D+00
     11   0.468231D-03 -0.152117D-02 -0.175438D-02 -0.460716D-01  0.349840D-01
     12   0.397534D-02 -0.202060D-01  0.537171D-02 -0.284324D-03 -0.222186D-01
     13   0.806192D-02  0.987327D-02  0.332492D-02 -0.251251D-02  0.233519D-01
     14   0.227802D-02  0.122564D-02 -0.479476D-02  0.181091D-01  0.302040D-01
     15   0.112163D-01  0.304496D-02  0.719310D-02  0.700966D-02  0.853941D-02
     16  -0.549987D-02 -0.532775D-02  0.516411D-03 -0.229074D-01  0.330520D-02
                 6             7             8             9            10 
      1  -0.359194D+04 -0.359194D+04 -0.359194D+04 -0.359194D+04 -0.359193D+04
      2   0.104144D+00 -0.963410D-01  0.106491D+00  0.232112D-01  0.107798D+00
      3  -0.388941D-02 -0.469047D-01 -0.913082D-01  0.223013D+00  0.253237D+00
      4   0.389896D-01  0.647531D-01  0.447895D-01  0.512433D-01 -0.156742D+00
      5  -0.967095D-02  0.112600D-01 -0.146879D-01 -0.145129D-02 -0.936184D-02
      6   0.495657D-03  0.631816D-02  0.966429D-02 -0.210661D-01 -0.221982D-01
      7  -0.620379D-02 -0.618444D-02 -0.599432D-02 -0.503075D-02  0.163855D-01
      8   0.819813D-01  0.150766D+00 -0.458087D+00  0.221401D+00  0.220791D-02
      9   0.890518D-01 -0.155251D+00  0.276764D+00 -0.143987D+00 -0.848715D-01
     10  -0.199056D+00 -0.126167D+00 -0.124156D+00  0.290048D-01 -0.117661D+00
     11   0.245662D-01  0.281529D-01  0.606723D-01  0.426435D-01  0.443212D-01
     12  -0.345400D-01  0.613110D-01 -0.179627D-01 -0.206792D+00 -0.207720D+00
     13   0.126441D-01 -0.193909D-01  0.991788D-02  0.111811D+00  0.259176D-01
     14   0.330490D-02  0.249469D-01  0.252834D-01  0.242671D-01 -0.310274D-01
     15  -0.116542D-01  0.626880D-01  0.482084D-01 -0.692774D-01 -0.103061D+00
     16   0.965715D-02 -0.178913D-01 -0.213619D-01  0.527913D-02  0.402412D-01
                11            12            13            14            15 
      1  -0.359193D+04 -0.359193D+04 -0.359193D+04 -0.359193D+04 -0.359192D+04
      2   0.116203D+00  0.309608D+00  0.218125D+00  0.144845D+00  0.491849D-02
      3   0.117115D+00  0.370206D+00 -0.804971D-01  0.829621D+00  0.461971D+00
      4  -0.378110D-01 -0.762263D+00 -0.672791D+00  0.350736D+00 -0.112173D+00
      5  -0.129809D-01 -0.320621D-01 -0.202880D-01 -0.169914D-01 -0.265538D-02
      6  -0.138221D-01 -0.394666D-01  0.987392D-02 -0.884491D-01 -0.528972D-01
      7   0.405332D-03  0.788101D-01  0.692364D-01 -0.384809D-01  0.120769D-01
      8   0.169491D+00  0.173169D+00  0.671299D-01 -0.175252D+00  0.126127D+00
      9   0.109629D+00  0.281231D+00 -0.117737D+00 -0.121378D+00  0.140666D+00
     10   0.320483D+00 -0.141209D+00  0.160707D+00  0.444758D-01 -0.498080D-01
     11   0.556388D-02  0.106547D+00  0.183271D-01  0.127671D+00  0.206594D+00
     12  -0.103452D+00 -0.219676D+00  0.207017D+00 -0.826803D+00 -0.374407D+00
     13   0.323680D-01 -0.991504D-02 -0.199060D+00  0.420934D+00 -0.141252D+00
     14  -0.314990D-02 -0.574403D-01 -0.517310D-01  0.113002D-01 -0.580521D-01
     15  -0.830553D-01 -0.136285D+00 -0.423901D-01 -0.258133D+00  0.444025D-01
     16   0.373618D-02  0.904033D-01  0.511971D-01  0.416757D-01  0.808911D-01
                16            17            18            19            20 
      1  -0.359191D+04 -0.359191D+04 -0.359191D+04 -0.359191D+04 -0.359190D+04
      2   0.162623D-01  0.597671D-01 -0.757580D-01 -0.446964D-01 -0.779839D-01
      3  -0.880520D-01  0.454148D-01  0.257354D-02 -0.739975D-01  0.264603D-01
      4   0.157808D-01  0.830680D-01  0.390942D-01  0.284191D-01  0.232661D-01
      5  -0.200403D-02 -0.674854D-02  0.108067D-01  0.412899D-02  0.715325D-02
      6   0.819149D-02 -0.426594D-02  0.382259D-04  0.967203D-02 -0.414359D-02
      7  -0.270272D-02 -0.912408D-02 -0.444153D-02 -0.356028D-02 -0.328736D-02
      8  -0.272501D-01 -0.991018D-02 -0.102836D+00  0.640670D-02  0.107699D-01
      9  -0.769322D-01  0.484126D-02  0.691176D-01  0.828880D-01 -0.155145D-02
     10   0.108685D+00 -0.312178D-01  0.469503D-01  0.795591D-01 -0.107935D+00
     11   0.504197D-01 -0.805365D-01 -0.127997D+00  0.682221D-01  0.721755D-01
     12  -0.620496D-01  0.633060D-01  0.340082D-01 -0.366648D-01 -0.144963D-01
     13   0.864476D-02 -0.316018D-01  0.323704D-01 -0.513200D-01 -0.203207D-01
     14  -0.173835D-02  0.105330D-01  0.333554D-01  0.364296D-01 -0.250643D-02
     15  -0.492283D-01 -0.227758D-01  0.199492D-01  0.257958D-01 -0.139808D-01
     16  -0.236295D-01  0.347561D-01 -0.168228D-02 -0.768029D-02  0.482672D-01
                21            22            23            24            25 
      1  -0.359190D+04 -0.359190D+04 -0.359190D+04 -0.359190D+04 -0.359189D+04
      2   0.333766D-01  0.397022D-02  0.417956D-01 -0.338882D-01  0.448945D+00
      3  -0.218794D-01  0.561027D-01 -0.130659D-01 -0.145135D-01 -0.763420D+00
      4   0.101195D-01 -0.139524D+00  0.363831D-01 -0.521950D-01 -0.854848D+00
      5  -0.420442D-02  0.105427D-02 -0.504823D-02  0.432197D-02 -0.586218D-01
      6   0.287434D-02 -0.708344D-02  0.315936D-03  0.301122D-02  0.101143D+00
      7  -0.152161D-02  0.175902D-01 -0.497807D-02  0.719946D-02  0.119582D+00
      8   0.239216D-01 -0.326478D-01 -0.524922D-02  0.293707D-01 -0.609003D+00
      9  -0.657508D-02 -0.379691D-01 -0.951073D-02  0.439295D-01 -0.485285D+00
     10   0.106545D-01  0.946539D-01  0.190695D-01 -0.575448D-01 -0.573837D+00
     11  -0.466726D-01 -0.324447D-01 -0.169898D-01 -0.396479D-01 -0.348829D+00
     12   0.765721D-01  0.190988D-01 -0.815408D-02  0.457236D-01 -0.369885D+00
     13  -0.240779D-01 -0.384436D-01 -0.940537D-02 -0.509279D-01  0.593953D+00
     14   0.584702D-02 -0.961304D-02  0.127793D-02 -0.206189D-01  0.290237D+00
     15  -0.291405D-01  0.119843D-01 -0.247205D-01  0.357804D-01 -0.267305D+00
     16   0.263522D-01  0.287309D-01  0.223599D-02  0.110999D-01 -0.156381D+00
                26            27            28            29            30 
      1  -0.359189D+04 -0.359189D+04 -0.359189D+04 -0.359189D+04 -0.359189D+04
      2   0.104558D+01  0.730103D+00 -0.353463D+00 -0.581189D+00 -0.602471D-01
      3   0.175054D+00 -0.556419D+00  0.643582D+00  0.607090D+00 -0.152491D+00
      4  -0.689238D+00 -0.421261D+00 -0.730845D+00 -0.488870D+00  0.405521D-01
      5  -0.143059D+00 -0.103727D+00  0.499193D-01  0.818778D-01  0.839731D-02
      6  -0.250343D-01  0.807175D-01 -0.925751D-01 -0.866665D-01  0.214958D-01
      7   0.101314D+00  0.618220D-01  0.102462D+00  0.683080D-01 -0.641675D-02
      8  -0.962278D-01 -0.673000D-01  0.370018D+00  0.110379D+01  0.231535D+00
      9   0.119690D+01  0.209471D-01 -0.351655D+00 -0.316937D+00  0.842215D+00
     10   0.165147D+00 -0.573028D+00 -0.940206D+00 -0.782958D+00 -0.338587D+00
     11   0.928172D+00  0.509052D+00  0.482239D+00  0.175609D+00 -0.293741D-01
     12  -0.526877D-01 -0.405100D+00 -0.906524D+00 -0.726040D+00 -0.115446D+00
     13  -0.688651D+00  0.859027D-01  0.323237D+00  0.307075D+00 -0.809653D-01
     14   0.112331D-01  0.198780D+00  0.163325D-02 -0.342382D-01 -0.788519D-01
     15   0.242252D+00 -0.920992D-02  0.361531D+00  0.328427D+00 -0.796752D-01
     16   0.153517D+00 -0.204663D+00  0.670686D-01  0.325395D-01  0.670161D-01
                31            32            33            34            35 
      1  -0.359189D+04 -0.359188D+04 -0.359188D+04 -0.359188D+04 -0.359188D+04
      2   0.198588D+00 -0.731157D+00  0.467344D+00 -0.313140D+00 -0.740280D+00
      3  -0.272360D+00 -0.245591D+00 -0.488269D+00  0.101302D+00  0.271376D+00
      4   0.115571D+00  0.102410D+00 -0.872122D-01 -0.599655D-01  0.637100D+00
      5  -0.271978D-01  0.104847D+00 -0.709448D-01  0.465454D-01  0.114718D+00
      6   0.391711D-01  0.384988D-01  0.743578D-01 -0.141324D-01 -0.431320D-01
      7  -0.158100D-01 -0.149540D-01  0.131328D-01  0.922715D-02 -0.936018D-01
      8  -0.321668D+00 -0.159133D+00 -0.898739D-01  0.792867D-01 -0.374515D-01
      9  -0.399296D-01 -0.601838D+00 -0.291871D-01  0.132359D-02 -0.448935D+00
     10   0.527428D+00  0.119122D+00  0.436573D-02  0.146043D+00 -0.656677D-01
     11  -0.288451D+00 -0.631628D+00  0.372635D+00  0.194469D+00 -0.451047D+00
     12   0.297768D+00  0.645834D-01 -0.219876D+00 -0.385237D+00 -0.234803D+00
     13   0.110121D+00  0.340178D+00 -0.742782D-01 -0.915060D-01  0.363188D+00
     14  -0.145455D+00 -0.128594D+00  0.139123D+00  0.194406D-01 -0.853762D-01
     15  -0.103697D+00 -0.138832D+00  0.172864D-02  0.124301D+00 -0.481596D-01
     16  -0.165745D+00 -0.135581D+00 -0.261595D+00 -0.100397D+00 -0.431175D-01
                36            37            38            39            40 
      1  -0.359188D+04 -0.359188D+04 -0.359188D+04 -0.359188D+04 -0.359188D+04
      2   0.101986D+00  0.662276D+00  0.488435D-01  0.474423D+00  0.222109D-01
      3   0.328070D-01 -0.175359D+00 -0.375696D+00 -0.223309D+00  0.125904D+00
      4  -0.243763D+00 -0.704252D-01 -0.112663D+00 -0.147621D+00  0.128208D+00
      5  -0.157652D-01 -0.103785D+00 -0.103726D-01 -0.658013D-01 -0.431914D-02
      6  -0.707107D-02  0.288385D-01  0.561306D-01  0.314643D-01 -0.232673D-01
      7   0.345684D-01  0.121319D-01  0.176955D-01  0.152034D-01 -0.152044D-01
      8   0.850153D-01 -0.397374D-01  0.204637D-02 -0.528550D-01 -0.922018D-02
      9   0.967998D-01 -0.378745D+00  0.105473D+00  0.309060D+00  0.542760D-01
     10  -0.376622D+00  0.324048D+00 -0.152529D+00  0.341290D-01  0.147683D+00
     11   0.210066D+00 -0.795651D+00  0.206247D+00 -0.695989D-01  0.605409D-01
     12   0.150307D+00  0.345360D+00 -0.544005D-01  0.314412D+00 -0.222263D+00
     13  -0.883809D-01  0.188444D+00  0.141542D-01 -0.164702D+00 -0.138740D-01
     14  -0.937546D-01 -0.604134D-02 -0.344448D+00  0.482635D-01 -0.461203D-01
     15   0.103709D+00 -0.431590D+00 -0.235826D+00  0.623991D-01 -0.382599D-02
     16   0.127284D+00 -0.255466D-01 -0.113149D+00  0.393370D-01 -0.103235D+00
                41            42            43            44            45 
      1  -0.359188D+04 -0.359188D+04 -0.359188D+04 -0.359187D+04 -0.359187D+04
      2   0.786180D-01  0.424929D+00 -0.224208D+00 -0.198065D-01  0.696302D-01
      3   0.367459D+00  0.678309D-01 -0.273075D+00 -0.244789D+00 -0.619548D-01
      4  -0.267135D+00 -0.773533D-01  0.362927D+00 -0.800116D-01  0.811568D-01
      5  -0.105008D-01 -0.656210D-01  0.320817D-01 -0.421476D-03 -0.104760D-01
      6  -0.518434D-01 -0.953961D-02  0.373647D-01  0.365999D-01  0.935657D-02
      7   0.418577D-01  0.956237D-02 -0.528915D-01  0.120468D-01 -0.134810D-01
      8   0.105493D+00 -0.119108D+00 -0.308852D-01  0.164537D-01 -0.100784D+00
      9  -0.225417D-01  0.386927D+00  0.787992D-01 -0.183295D-02 -0.216568D-01
     10  -0.188669D+00  0.182171D+00  0.200396D+00  0.625083D-01  0.344798D-01
     11   0.273720D+00  0.260649D+00 -0.187841D+00 -0.105877D+00  0.652062D-01
     12  -0.626223D+00  0.931280D-01  0.576898D+00  0.320305D+00  0.390708D-01
     13   0.122976D+00 -0.252390D+00 -0.413148D+00 -0.152287D+00 -0.683309D-01
     14   0.367999D-01  0.108255D+00 -0.911025D-01  0.220307D-01  0.123558D-01
     15  -0.173782D+00  0.136254D+00  0.293074D+00 -0.460450D-01 -0.106376D+00
     16   0.119549D+00  0.712246D-01 -0.206045D+00 -0.386931D-01  0.826806D-01
                46            47            48            49            50 
      1  -0.359187D+04 -0.359187D+04 -0.359187D+04 -0.359187D+04 -0.359187D+04
      2   0.157649D+00 -0.205936D+00 -0.525648D+00  0.841127D-02 -0.169634D+00
      3  -0.321623D+00  0.589035D-02 -0.341830D-01 -0.157366D-01 -0.399976D+00
      4   0.306163D+00  0.260722D+00  0.408655D+00 -0.650699D-01 -0.255451D+00
      5  -0.239323D-01  0.294646D-01  0.778237D-01 -0.173392D-02  0.256819D-01
      6   0.511284D-01 -0.802780D-03  0.838822D-02  0.371756D-02  0.663147D-01
      7  -0.491429D-01 -0.393188D-01 -0.620742D-01  0.113908D-01  0.388550D-01
      8  -0.344161D+00 -0.882515D-01  0.236691D-01 -0.108467D-01 -0.974988D-01
      9   0.995751D-01 -0.217232D+00 -0.117733D+00  0.150582D+00 -0.145861D+00
     10   0.268239D+00 -0.718158D-01 -0.428800D+00 -0.582714D-01 -0.487717D+00
     11  -0.263285D+00 -0.121851D+00 -0.325862D+00 -0.437915D-01 -0.304841D+00
     12   0.461846D+00 -0.322316D-01  0.820031D-02 -0.299240D-01 -0.271114D+00
     13  -0.493390D-01  0.638984D-01  0.227254D+00  0.713443D-01  0.191940D+00
     14  -0.464857D-01  0.110545D-01 -0.595007D-01 -0.261288D-01 -0.457787D+00
     15  -0.474258D-01 -0.651447D-01 -0.581779D-01 -0.218773D-01 -0.143447D+00
     16  -0.130853D+00 -0.215878D-02 -0.145840D+00 -0.990108D-02  0.158255D-01
                51            52            53            54            55 
      1  -0.359187D+04 -0.359187D+04 -0.359187D+04 -0.359187D+04 -0.359187D+04
      2  -0.779059D-01  0.167711D-01  0.639509D-01  0.826451D-02 -0.119464D+00
      3   0.322953D+00 -0.746162D-03  0.565338D-01 -0.343740D-01 -0.241281D+00
      4   0.254288D+00 -0.485886D-01 -0.135561D-01  0.146917D+00 -0.194019D+00
      5   0.922938D-02 -0.725317D-03 -0.124014D-01 -0.245174D-02  0.199884D-01
      6  -0.483565D-01 -0.680161D-03 -0.555147D-02  0.916676D-02  0.368362D-01
      7  -0.422195D-01  0.137336D-01 -0.198233D-02 -0.186409D-01  0.324976D-01
      8   0.348055D-01  0.867937D+00  0.276773D+00  0.882213D+00 -0.170437D+00
      9   0.856913D-02 -0.128833D+00 -0.712338D+00  0.721835D-01  0.192313D+00
     10   0.619301D+00 -0.282060D+00 -0.545024D+00  0.567699D+00 -0.242467D+00
     11   0.434462D+00 -0.343030D-01 -0.742008D-01  0.169812D-01 -0.378972D+00
     12   0.227087D+00  0.202442D-01  0.191616D-01  0.168929D+00 -0.199256D+00
     13  -0.165313D+00 -0.291408D-02 -0.364085D-01 -0.186953D+00  0.239758D+00
     14   0.304407D+00 -0.206757D-01  0.977220D-01  0.811642D-01 -0.371427D+00
     15   0.172637D+00 -0.259577D-01  0.855790D-01  0.434030D-01 -0.307251D+00
     16  -0.382191D-02  0.715875D-01  0.316084D-01  0.464035D-01  0.217557D-01
                56            57            58            59            60 
      1  -0.359187D+04 -0.359187D+04 -0.359186D+04 -0.359186D+04 -0.359186D+04
      2   0.215391D+00 -0.252455D+00 -0.107386D+00 -0.255384D+00  0.165039D+00
      3   0.294202D+00  0.406831D-01 -0.247669D+00  0.219226D+00  0.270879D+00
      4   0.121604D+00  0.310521D+00  0.139881D+00  0.123980D+00  0.437510D+00
      5  -0.357411D-01  0.379168D-01  0.165370D-01  0.397110D-01 -0.277455D-01
      6  -0.500953D-01 -0.927315D-02  0.412960D-01 -0.383405D-01 -0.490657D-01
      7  -0.198146D-01 -0.524590D-01 -0.226767D-01 -0.211983D-01 -0.746183D-01
      8  -0.501627D-01  0.563150D-01  0.162230D+00  0.316188D+00 -0.406004D+00
      9   0.568600D+00 -0.120812D+00 -0.260967D+00  0.536283D-01 -0.522987D+00
     10  -0.386823D+00  0.459558D+00 -0.765834D+00 -0.752517D+00  0.913175D+00
     11  -0.394908D+00  0.998435D-01 -0.184802D+00 -0.436322D-01 -0.374367D+00
     12   0.364000D+00  0.332730D+00 -0.514242D+00  0.174344D+00  0.883487D+00
     13  -0.263359D+00 -0.251738D+00  0.438384D+00 -0.115765D+00  0.179042D-01
     14   0.252919D+00 -0.202995D+00  0.203338D+00 -0.444307D+00  0.698383D+00
     15   0.298034D+00 -0.759424D-01 -0.168522D+00  0.879885D-02 -0.111150D+00
     16   0.469810D-01  0.966661D-01 -0.290350D+00  0.871811D-01  0.129109D+00
 1\1\GINC-COMPUTE-0-40\SP\RM06 TD-FC\Gen\C36H27Fe1N9O6(2+)\BENCSURA\16-
 Oct-2023\0\\#p m06 chkbasis geom=allcheck Guess=Read int=ultrafine scr
 f=(SMD,solvent=Acetonitrile) td=(NStates=60)\\Title\\2,1\Fe,0,-0.19029
 56256,1.0538758635,-0.1778856397\N,0,-0.4508871566,2.9937068821,-0.520
 2321858\C,0,0.4693515617,3.7827468231,0.0863976128\C,0,-1.3730526444,3
 .5708958463,-1.2900634534\C,0,0.4733637798,5.166952032,-0.0415175995\C
 ,0,-1.4353460382,4.9533043374,-1.4685367651\H,0,-2.0916647009,2.913666
 7389,-1.7892757751\C,0,-0.504218405,5.7647436576,-0.8329160862\H,0,1.2
 386548069,5.7515794102,0.4745571858\H,0,-2.214978526,5.3751107976,-2.1
 060361363\H,0,-0.5331339153,6.849921475,-0.9553679227\C,0,1.442266693,
 3.0559537693,0.8807931573\H,0,2.2290303709,3.5975404463,1.4258322792\N
 ,0,1.3343197118,1.7739221145,0.9109566981\C,0,2.2875134142,1.008957596
 ,1.6284894188\C,0,3.6532184153,1.0981332093,1.3350463984\C,0,1.8464328
 237,0.1088128826,2.5965492768\C,0,4.5674299084,0.2667746049,1.97993063
 26\H,0,3.9969972331,1.8057455805,0.5739880067\C,0,2.7778382222,-0.7109
 479617,3.2156907151\H,0,0.7990077673,0.0583344218,2.8923109703\C,0,4.1
 377973677,-0.6578388758,2.9245256822\H,0,5.628546917,0.3340206747,1.72
 8296882\N,0,-1.3393424922,0.9833758549,1.4444097156\C,0,-1.5333778953,
 -0.2727431259,1.9176337531\C,0,-1.9334506537,1.9968108853,2.0732060716
 \C,0,-2.350672419,-0.5476227553,3.0079006072\C,0,-2.7637742331,1.80384
 18127,3.1782215571\H,0,-1.760200119,3.0038457008,1.6800729895\C,0,-2.9
 842304767,0.5153938394,3.6479775909\H,0,-2.4690143633,-1.5809041611,3.
 3435584632\H,0,-3.2286691395,2.6690641122,3.654912702\H,0,-3.633859225
 9,0.337805531,4.5081733488\C,0,-0.7716773488,-1.2954735542,1.224843009
 7\H,0,-0.8512443561,-2.3460072841,1.5418051454\N,0,0.017947342,-0.9022
 067317,0.286050805\C,0,0.76847678,-1.846269133,-0.450688699\C,0,0.1967
 469397,-3.0350532636,-0.9224343911\C,0,2.0948142995,-1.5468245515,-0.7
 602832252\C,0,0.9473262595,-3.9135312027,-1.7013191441\H,0,-0.84933186
 16,-3.2634658625,-0.6937499113\C,0,2.8153870345,-2.4383736452,-1.53996
 22327\H,0,2.56860924,-0.6369603756,-0.3919371617\C,0,2.2681654874,-3.6
 229554023,-2.0246507509\H,0,0.4881761836,-4.8335540526,-2.070750532\N,
 0,0.8298584838,0.9582909849,-1.9042834967\C,0,0.1035361004,0.449590472
 2,-2.9292210628\C,0,2.0921066342,1.3106735075,-2.1460148416\C,0,0.6329
 927207,0.2357407469,-4.1969003501\C,0,2.696858226,1.1338208137,-3.3911
 011992\H,0,2.6639613314,1.7406920804,-1.3190491338\C,0,1.9631502732,0.
 5763277695,-4.4299338459\H,0,-0.0014995735,-0.1908608581,-4.9774873422
 \H,0,3.7395203973,1.4291076157,-3.5245048837\H,0,2.4147030627,0.416510
 906,-5.4118381864\C,0,-1.2688883571,0.129137553,-2.5887318433\H,0,-1.9
 28582506,-0.3334658777,-3.3373994816\N,0,-1.6603527199,0.4031624544,-1
 .3939372446\C,0,-2.9409442302,-0.0232400755,-0.9674897833\C,0,-3.29364
 83298,-1.3659153825,-1.0959728491\C,0,-3.8190559407,0.8746410916,-0.34
 85808244\C,0,-4.5155356193,-1.7827590186,-0.5804921007\H,0,-2.61581248
 29,-2.0818229009,-1.5667749081\C,0,-5.0436529522,0.4316030933,0.139435
 7151\H,0,-3.5410509425,1.9283380425,-0.2635035431\C,0,-5.4031276248,-0
 .9100345254,0.0372640394\H,0,-5.7257327225,1.1412171903,0.6141802546\N
 ,0,-4.8638894413,-3.2071255315,-0.6813547367\O,0,-4.0260516497,-3.9642
 46943,-1.1270934878\O,0,-5.9671290685,-3.5464207417,-0.310569543\N,0,4
 .2026381061,-2.0910312525,-1.8799231761\O,0,4.8369256575,-2.8834693948
 ,-2.5426719053\O,0,4.6336040559,-1.0269288422,-1.4831457914\N,0,2.2902
 622594,-1.6860804954,4.2008558503\O,0,1.0889413133,-1.8371290697,4.299
 5962912\O,0,3.1139637501,-2.2915753361,4.8518797455\H,0,-6.3510736631,
 -1.2805892372,0.4306675438\H,0,2.8676116979,-4.292442388,-2.6436762867
 \H,0,4.833875791,-1.3303324123,3.4284863442\\Version=ES64L-G16RevA.03\
 State=1-A\HF=-3592.0304097\RMSD=7.517e-09\PG=C01 [X(C36H27Fe1N9O6)]\\@


 GETTING A SIMPLE ANSWER FROM A PROFESSOR IS LIKE
 GETTING A THIMBLE OF WATER FROM A FIRE HYDRANT.
     -- PROF. LEN SHAPIRO, NDSU
 Job cpu time:       7 days  1 hours  0 minutes 17.9 seconds.
 Elapsed time:       0 days 14 hours  9 minutes 37.1 seconds.
 File lengths (MBytes):  RWF=  22425 Int=      0 D2E=      0 Chk=   1628 Scr=      1
 Normal termination of Gaussian 16 at Mon Oct 16 22:20:29 2023.
