
                                 *****************
                                 * O   R   C   A *
                                 *****************

                                            #,                                       
                                            ###                                      
                                            ####                                     
                                            #####                                    
                                            ######                                   
                                           ########,                                 
                                     ,,################,,,,,                         
                               ,,#################################,,                 
                          ,,##########################################,,             
                       ,#########################################, ''#####,          
                    ,#############################################,,   '####,        
                  ,##################################################,,,,####,       
                ,###########''''           ''''###############################       
              ,#####''   ,,,,##########,,,,          '''####'''          '####       
            ,##' ,,,,###########################,,,                        '##       
           ' ,,###''''                  '''############,,,                           
         ,,##''                                '''############,,,,        ,,,,,,###''
      ,#''                                            '''#######################'''  
     '                                                          ''''####''''         
             ,#######,   #######,   ,#######,      ##                                
            ,#'     '#,  ##    ##  ,#'     '#,    #''#        ######   ,####,        
            ##       ##  ##   ,#'  ##            #'  '#       #        #'  '#        
            ##       ##  #######   ##           ,######,      #####,   #    #        
            '#,     ,#'  ##    ##  '#,     ,#' ,#      #,         ##   #,  ,#        
             '#######'   ##     ##  '#######'  #'      '#     #####' # '####'        



                  #######################################################
                  #                        -***-                        #
                  #          Department of theory and spectroscopy      #
                  #    Directorship and core code : Frank Neese         #
                  #        Max Planck Institute fuer Kohlenforschung    #
                  #                Kaiser Wilhelm Platz 1               #
                  #                 D-45470 Muelheim/Ruhr               #
                  #                      Germany                        #
                  #                                                     #
                  #                  All rights reserved                #
                  #                        -***-                        #
                  #######################################################


                         Program Version 5.0.4 -  RELEASE  -


 With contributions from (in alphabetic order):
   Daniel Aravena         : Magnetic Suceptibility
   Michael Atanasov       : Ab Initio Ligand Field Theory (pilot matlab implementation)
   Alexander A. Auer      : GIAO ZORA, VPT2 properties, NMR spectrum
   Ute Becker             : Parallelization
   Giovanni Bistoni       : ED, misc. LED, open-shell LED, HFLD
   Martin Brehm           : Molecular dynamics
   Dmytro Bykov           : SCF Hessian
   Vijay G. Chilkuri      : MRCI spin determinant printing, contributions to CSF-ICE
   Dipayan Datta          : RHF DLPNO-CCSD density
   Achintya Kumar Dutta   : EOM-CC, STEOM-CC
   Dmitry Ganyushin       : Spin-Orbit,Spin-Spin,Magnetic field MRCI
   Miquel Garcia          : C-PCM and meta-GGA Hessian, CC/C-PCM, Gaussian charge scheme
   Yang Guo               : DLPNO-NEVPT2, F12-NEVPT2, CIM, IAO-localization
   Andreas Hansen         : Spin unrestricted coupled pair/coupled cluster methods
   Benjamin Helmich-Paris : MC-RPA, TRAH-SCF, COSX integrals
   Lee Huntington         : MR-EOM, pCC
   Robert Izsak           : Overlap fitted RIJCOSX, COSX-SCS-MP3, EOM
   Marcus Kettner         : VPT2
   Christian Kollmar      : KDIIS, OOCD, Brueckner-CCSD(T), CCSD density, CASPT2, CASPT2-K
   Simone Kossmann        : Meta GGA functionals, TD-DFT gradient, OOMP2, MP2 Hessian
   Martin Krupicka        : Initial AUTO-CI
   Lucas Lang             : DCDCAS
   Marvin Lechner         : AUTO-CI (C++ implementation), FIC-MRCC
   Dagmar Lenk            : GEPOL surface, SMD
   Dimitrios Liakos       : Extrapolation schemes; Compound Job, initial MDCI parallelization
   Dimitrios Manganas     : Further ROCIS development; embedding schemes
   Dimitrios Pantazis     : SARC Basis sets
   Anastasios Papadopoulos: AUTO-CI, single reference methods and gradients
   Taras Petrenko         : DFT Hessian,TD-DFT gradient, ASA, ECA, R-Raman, ABS, FL, XAS/XES, NRVS
   Peter Pinski           : DLPNO-MP2, DLPNO-MP2 Gradient
   Christoph Reimann      : Effective Core Potentials
   Marius Retegan         : Local ZFS, SOC
   Christoph Riplinger    : Optimizer, TS searches, QM/MM, DLPNO-CCSD(T), (RO)-DLPNO pert. Triples
   Tobias Risthaus        : Range-separated hybrids, TD-DFT gradient, RPA, STAB
   Michael Roemelt        : Original ROCIS implementation
   Masaaki Saitow         : Open-shell DLPNO-CCSD energy and density
   Barbara Sandhoefer     : DKH picture change effects
   Avijit Sen             : IP-ROCIS
   Kantharuban Sivalingam : CASSCF convergence, NEVPT2, FIC-MRCI
   Bernardo de Souza      : ESD, SOC TD-DFT
   Georgi Stoychev        : AutoAux, RI-MP2 NMR, DLPNO-MP2 response
   Willem Van den Heuvel  : Paramagnetic NMR
   Boris Wezisla          : Elementary symmetry handling
   Frank Wennmohs         : Technical directorship


 We gratefully acknowledge several colleagues who have allowed us to
 interface, adapt or use parts of their codes:
   Stefan Grimme, W. Hujo, H. Kruse, P. Pracht,  : VdW corrections, initial TS optimization,
                  C. Bannwarth, S. Ehlert          DFT functionals, gCP, sTDA/sTD-DF
   Ed Valeev, F. Pavosevic, A. Kumar             : LibInt (2-el integral package), F12 methods
   Garnet Chan, S. Sharma, J. Yang, R. Olivares  : DMRG
   Ulf Ekstrom                                   : XCFun DFT Library
   Mihaly Kallay                                 : mrcc  (arbitrary order and MRCC methods)
   Jiri Pittner, Ondrej Demel                    : Mk-CCSD
   Frank Weinhold                                : gennbo (NPA and NBO analysis)
   Christopher J. Cramer and Donald G. Truhlar   : smd solvation model
   Lars Goerigk                                  : TD-DFT with DH, B97 family of functionals
   V. Asgeirsson, H. Jonsson                     : NEB implementation
   FAccTs GmbH                                   : IRC, NEB, NEB-TS, DLPNO-Multilevel, CI-OPT
                                                   MM, QMMM, 2- and 3-layer-ONIOM, Crystal-QMMM,
                                                   LR-CPCM, SF, NACMEs, symmetry and pop. for TD-DFT,
                                                   nearIR, NL-DFT gradient (VV10), updates on ESD,
                                                   ML-optimized integration grids
   S Lehtola, MJT Oliveira, MAL Marques          : LibXC Library
   Liviu Ungur et al                             : ANISO software


 Your calculation uses the libint2 library for the computation of 2-el integrals
 For citations please refer to: http://libint.valeyev.net

 Your ORCA version has been built with support for libXC version: 5.1.0
 For citations please refer to: https://tddft.org/programs/libxc/

 This ORCA versions uses:
   CBLAS   interface :  Fast vector & matrix operations
   LAPACKE interface :  Fast linear algebra routines
   SCALAPACK package :  Parallel linear algebra routines
   Shared memory     :  Shared parallel matrices
   BLAS/LAPACK       :  OpenBLAS 0.3.15  USE64BITINT DYNAMIC_ARCH NO_AFFINITY Zen SINGLE_THREADED
        Core in use  :  Zen
   Copyright (c) 2011-2014, The OpenBLAS Project


Your calculation utilizes the SMD solvation module
Please cite in your paper:
A.V. Marenich, C.J. Cramer, D.G. Truhlar J. Phys. Chem. B, 113, (2009), 6378 

================================================================================

----- Orbital basis set information -----
Your calculation utilizes the basis: def2-SVP
   F. Weigend and R. Ahlrichs, Phys. Chem. Chem. Phys. 7, 3297 (2005).

----- AuxJ basis set information -----
Your calculation utilizes the auxiliary basis: def2/J
   F. Weigend, Phys. Chem. Chem. Phys. 8, 1057 (2006).

----- AuxC basis set information -----
Your calculation utilizes the auxiliary basis: def2-SVP/C
  H-La, Hf-Rn : A. Hellweg, C. Hattig, S. Hofener and W. Klopper, Theor. Chem. Acc. 117, 587 (2007).
        Ce-Lu : J. Chmela and M. E. Harding, Mol. Phys. (2018).

================================================================================
                                        WARNINGS
                       Please study these warnings very carefully!
================================================================================

INFO   : Checking CIS options ...
  ===> : (D) CORRECTION FOUND - SETTING MODE=3
  ===> : JK MODE FOUND - ACTIVATING RI-MP2 CODE
  ===> : MP2 AND CIS FOUND - CHECKING
WARNING: CIS(D) and MP2 runs must have the same orbital window
  ===> : adjusting orbital windows

WARNING: No MP2 level density has been requested!
         To caclulate MP2 level properties use
         %mp2 Density relaxed end
         or
         %mp2 Density unrelaxed end
         Otherwise for double-hybrid DFT only the energy is correct!

WARNING: The frozen-core approximation is turned on by default for 
         the MP2 part of double-hybrid DFT.

WARNING:  You are using a Range-Separated Double Hybrid functional with Doubles Correction 
          Changing Mode to RPA_AOINTS 


WARNING: CIS/ROCIS methods need fully converged wavefunctions
  ===> : Setting SCFConvForced true
         You can overwrite this default with %scf ConvForced false 


INFO   : the flag for use of the SHARK integral package has been found!

================================================================================
                                       INPUT FILE
================================================================================
NAME = FeC_4_wB2PYLP_def2SVP.inp
|  1> %maxcore 6000
|  2> %pal
|  3>  nprocs 8
|  4> end
|  5> ! RI-wB2PLYP def2-SVP def2/J def2-SVP/C RIJCOSX CPCM TIGHTSCF
|  6> 
|  7> %TDDFT 
|  8>     DCORR      1
|  9>     NROOTS    40
| 10>     TDA       FALSE
| 11> END
| 12> 
| 13> %CPCM
| 14>     SMD		TRUE
| 15>     SMDsolvent	"Acetonitrile"
| 16> END
| 17> 
| 18> * xyz 2 1
| 19> Fe                 -0.18443400    1.05691900   -0.14483500
| 20> N                  -0.45141900    2.99521900   -0.51342800
| 21> C                   0.48875800    3.80074400    0.05491000
| 22> C                  -1.38066200    3.55541600   -1.29519600
| 23> C                   0.49530100    5.18331200   -0.12762900
| 24> C                  -1.43442300    4.92992000   -1.52113800
| 25> H                  -2.10511800    2.88586000   -1.76305900
| 26> C                  -0.48754000    5.75915300   -0.92641900
| 27> H                   1.27031500    5.78119000    0.35371800
| 28> H                  -2.21816900    5.33257700   -2.16348500
| 29> H                  -0.51008600    6.83790200   -1.08791400
| 30> C                   1.46140400    3.09144700    0.84730000
| 31> H                   2.26188000    3.62966500    1.36849700
| 32> N                   1.33638300    1.80241100    0.91333600
| 33> C                   2.29050700    1.04157900    1.62714400
| 34> C                   3.66315200    1.17422700    1.37216200
| 35> C                   1.84596700    0.10026600    2.55565900
| 36> C                   4.57942500    0.34976700    2.02358400
| 37> H                   4.00823500    1.90821400    0.63949100
| 38> C                   2.78161900   -0.70471400    3.19014400
| 39> H                   0.79323300    0.01225100    2.81133700
| 40> C                   4.14862900   -0.60608500    2.93808700
| 41> H                   5.64353000    0.44781300    1.80260000
| 42> N                  -1.32476600    0.96618500    1.48234400
| 43> C                  -1.56743300   -0.30234200    1.92027300
| 44> C                  -1.88841100    1.98586900    2.13884100
| 45> C                  -2.40609600   -0.57017800    3.00180400
| 46> C                  -2.73129700    1.79150000    3.23227200
| 47> H                  -1.67211800    2.99266600    1.77372800
| 48> C                  -3.00388100    0.49664000    3.66607600
| 49> H                  -2.56573800   -1.60472800    3.30990800
| 50> H                  -3.16668900    2.65900500    3.72905200
| 51> H                  -3.66535200    0.32094800    4.51580900
| 52> C                  -0.83074800   -1.31854000    1.20957900
| 53> H                  -0.94168900   -2.37678500    1.47707100
| 54> N                   0.00242500   -0.90857900    0.30272500
| 55> C                   0.74312000   -1.84156600   -0.45301400
| 56> C                   0.16280000   -3.02118600   -0.94520500
| 57> C                   2.07480200   -1.54682700   -0.75558600
| 58> C                   0.90955800   -3.89002200   -1.73903400
| 59> H                  -0.88144700   -3.24938600   -0.71859400
| 60> C                   2.79383000   -2.43305900   -1.54491200
| 61> H                   2.55060700   -0.64546000   -0.37385200
| 62> C                   2.23523100   -3.60471600   -2.05217800
| 63> H                   0.44563600   -4.79854300   -2.12629700
| 64> N                   0.83205700    0.94835200   -1.87323100
| 65> C                   0.11165600    0.42715100   -2.90407500
| 66> C                   2.09989500    1.30326000   -2.10579400
| 67> C                   0.65934300    0.21892800   -4.16979000
| 68> C                   2.71247000    1.12976100   -3.34628600
| 69> H                   2.66106500    1.72529200   -1.26965400
| 70> C                   1.98705400    0.57062300   -4.39383600
| 71> H                   0.03699600   -0.21223300   -4.95508700
| 72> H                   3.75460800    1.42569400   -3.46974400
| 73> H                   2.44566000    0.41557400   -5.37159700
| 74> C                  -1.25175700    0.10325400   -2.56596800
| 75> H                  -1.91300000   -0.36390500   -3.30588600
| 76> N                  -1.64885600    0.39203400   -1.36688900
| 77> C                  -2.92569200   -0.03281600   -0.93609500
| 78> C                  -3.29648600   -1.36885900   -1.10259900
| 79> C                  -3.78790200    0.85562200   -0.27673900
| 80> C                  -4.52099200   -1.78828600   -0.59274400
| 81> H                  -2.63646600   -2.07682600   -1.60392200
| 82> C                  -5.01494900    0.41039800    0.20515400
| 83> H                  -3.49553800    1.89953200   -0.15310500
| 84> C                  -5.39321500   -0.92306900    0.06080400
| 85> H                  -5.68270600    1.11084100    0.70969600
| 86> N                  -4.88931900   -3.20264000   -0.74284500
| 87> O                  -4.06604900   -3.95513900   -1.24191100
| 88> O                  -5.99573500   -3.54547600   -0.35890600
| 89> N                   4.18572600   -2.09597100   -1.87387400
| 90> O                   4.81965600   -2.89403200   -2.54485300
| 91> O                   4.62763200   -1.03328300   -1.46161300
| 92> N                   2.29398000   -1.70752800    4.14661900
| 93> O                   1.08469700   -1.85819300    4.24595200
| 94> O                   3.12335800   -2.33819500    4.78123300
| 95> H                  -6.34131600   -1.29407200    0.44900700
| 96> H                   2.83073200   -4.26658500   -2.68016200
| 97> H                   4.84804100   -1.26766800    3.44830100
| 98> *
| 99> 
|100>                          ****END OF INPUT****
================================================================================

                       ****************************
                       * Single Point Calculation *
                       ****************************

---------------------------------
CARTESIAN COORDINATES (ANGSTROEM)
---------------------------------
  Fe    -0.184434    1.056919   -0.144835
  N     -0.451419    2.995219   -0.513428
  C      0.488758    3.800744    0.054910
  C     -1.380662    3.555416   -1.295196
  C      0.495301    5.183312   -0.127629
  C     -1.434423    4.929920   -1.521138
  H     -2.105118    2.885860   -1.763059
  C     -0.487540    5.759153   -0.926419
  H      1.270315    5.781190    0.353718
  H     -2.218169    5.332577   -2.163485
  H     -0.510086    6.837902   -1.087914
  C      1.461404    3.091447    0.847300
  H      2.261880    3.629665    1.368497
  N      1.336383    1.802411    0.913336
  C      2.290507    1.041579    1.627144
  C      3.663152    1.174227    1.372162
  C      1.845967    0.100266    2.555659
  C      4.579425    0.349767    2.023584
  H      4.008235    1.908214    0.639491
  C      2.781619   -0.704714    3.190144
  H      0.793233    0.012251    2.811337
  C      4.148629   -0.606085    2.938087
  H      5.643530    0.447813    1.802600
  N     -1.324766    0.966185    1.482344
  C     -1.567433   -0.302342    1.920273
  C     -1.888411    1.985869    2.138841
  C     -2.406096   -0.570178    3.001804
  C     -2.731297    1.791500    3.232272
  H     -1.672118    2.992666    1.773728
  C     -3.003881    0.496640    3.666076
  H     -2.565738   -1.604728    3.309908
  H     -3.166689    2.659005    3.729052
  H     -3.665352    0.320948    4.515809
  C     -0.830748   -1.318540    1.209579
  H     -0.941689   -2.376785    1.477071
  N      0.002425   -0.908579    0.302725
  C      0.743120   -1.841566   -0.453014
  C      0.162800   -3.021186   -0.945205
  C      2.074802   -1.546827   -0.755586
  C      0.909558   -3.890022   -1.739034
  H     -0.881447   -3.249386   -0.718594
  C      2.793830   -2.433059   -1.544912
  H      2.550607   -0.645460   -0.373852
  C      2.235231   -3.604716   -2.052178
  H      0.445636   -4.798543   -2.126297
  N      0.832057    0.948352   -1.873231
  C      0.111656    0.427151   -2.904075
  C      2.099895    1.303260   -2.105794
  C      0.659343    0.218928   -4.169790
  C      2.712470    1.129761   -3.346286
  H      2.661065    1.725292   -1.269654
  C      1.987054    0.570623   -4.393836
  H      0.036996   -0.212233   -4.955087
  H      3.754608    1.425694   -3.469744
  H      2.445660    0.415574   -5.371597
  C     -1.251757    0.103254   -2.565968
  H     -1.913000   -0.363905   -3.305886
  N     -1.648856    0.392034   -1.366889
  C     -2.925692   -0.032816   -0.936095
  C     -3.296486   -1.368859   -1.102599
  C     -3.787902    0.855622   -0.276739
  C     -4.520992   -1.788286   -0.592744
  H     -2.636466   -2.076826   -1.603922
  C     -5.014949    0.410398    0.205154
  H     -3.495538    1.899532   -0.153105
  C     -5.393215   -0.923069    0.060804
  H     -5.682706    1.110841    0.709696
  N     -4.889319   -3.202640   -0.742845
  O     -4.066049   -3.955139   -1.241911
  O     -5.995735   -3.545476   -0.358906
  N      4.185726   -2.095971   -1.873874
  O      4.819656   -2.894032   -2.544853
  O      4.627632   -1.033283   -1.461613
  N      2.293980   -1.707528    4.146619
  O      1.084697   -1.858193    4.245952
  O      3.123358   -2.338195    4.781233
  H     -6.341316   -1.294072    0.449007
  H      2.830732   -4.266585   -2.680162
  H      4.848041   -1.267668    3.448301

----------------------------
CARTESIAN COORDINATES (A.U.)
----------------------------
  NO LB      ZA    FRAG     MASS         X           Y           Z
   0 Fe   26.0000    0    55.850   -0.348530    1.997287   -0.273698
   1 N     7.0000    0    14.007   -0.853058    5.660144   -0.970238
   2 C     6.0000    0    12.011    0.923619    7.182365    0.103765
   3 C     6.0000    0    12.011   -2.609073    6.718763   -2.447566
   4 C     6.0000    0    12.011    0.935983    9.795040   -0.241184
   5 C     6.0000    0    12.011   -2.710667    9.316199   -2.874534
   6 H     1.0000    0     1.008   -3.978096    5.453485   -3.331699
   7 C     6.0000    0    12.011   -0.921317   10.883222   -1.750678
   8 H     1.0000    0     1.008    2.400547   10.924866    0.668430
   9 H     1.0000    0     1.008   -4.191732   10.077110   -4.088394
  10 H     1.0000    0     1.008   -0.963923   12.921762   -2.055860
  11 C     6.0000    0    12.011    2.761653    5.841988    1.601165
  12 H     1.0000    0     1.008    4.274334    6.859073    2.586085
  13 N     7.0000    0    14.007    2.525398    3.406063    1.725955
  14 C     6.0000    0    12.011    4.328431    1.968299    3.074857
  15 C     6.0000    0    12.011    6.922354    2.218967    2.593010
  16 C     6.0000    0    12.011    3.488372    0.189475    4.829496
  17 C     6.0000    0    12.011    8.653859    0.660964    3.824020
  18 H     1.0000    0     1.008    7.574466    3.606002    1.208463
  19 C     6.0000    0    12.011    5.256498   -1.331716    6.028498
  20 H     1.0000    0     1.008    1.498993    0.023151    5.312657
  21 C     6.0000    0    12.011    7.839773   -1.145335    5.552180
  22 H     1.0000    0     1.008   10.664726    0.846244    3.406420
  23 N     7.0000    0    14.007   -2.503445    1.825825    2.801224
  24 C     6.0000    0    12.011   -2.962019   -0.571344    3.628790
  25 C     6.0000    0    12.011   -3.568580    3.752749    4.041824
  26 C     6.0000    0    12.011   -4.546862   -1.077480    5.672587
  27 C     6.0000    0    12.011   -5.161403    3.385444    6.108109
  28 H     1.0000    0     1.008   -3.159845    5.655319    3.351860
  29 C     6.0000    0    12.011   -5.676512    0.938514    6.927880
  30 H     1.0000    0     1.008   -4.848542   -3.032496    6.254820
  31 H     1.0000    0     1.008   -5.984175    5.024791    7.046887
  32 H     1.0000    0     1.008   -6.926511    0.606504    8.533642
  33 C     6.0000    0    12.011   -1.569886   -2.491679    2.285773
  34 H     1.0000    0     1.008   -1.779534   -4.491473    2.791260
  35 N     7.0000    0    14.007    0.004583   -1.716965    0.572067
  36 C     6.0000    0    12.011    1.404293   -3.480055   -0.856072
  37 C     6.0000    0    12.011    0.307647   -5.709214   -1.786179
  38 C     6.0000    0    12.011    3.920808   -2.923079   -1.427851
  39 C     6.0000    0    12.011    1.718816   -7.351076   -3.286298
  40 H     1.0000    0     1.008   -1.665693   -6.140450   -1.357946
  41 C     6.0000    0    12.011    5.279574   -4.597815   -2.919461
  42 H     1.0000    0     1.008    4.819949   -1.219743   -0.706478
  43 C     6.0000    0    12.011    4.223974   -6.811926   -3.878054
  44 H     1.0000    0     1.008    0.842130   -9.067932   -4.018119
  45 N     7.0000    0    14.007    1.572360    1.792126   -3.539894
  46 C     6.0000    0    12.011    0.210999    0.807198   -5.487906
  47 C     6.0000    0    12.011    3.968226    2.462804   -3.979374
  48 C     6.0000    0    12.011    1.245978    0.413714   -7.879761
  49 C     6.0000    0    12.011    5.125825    2.134939   -6.323564
  50 H     1.0000    0     1.008    5.028684    3.260329   -2.399298
  51 C     6.0000    0    12.011    3.754988    1.078321   -8.303147
  52 H     1.0000    0     1.008    0.069912   -0.401062   -9.363757
  53 H     1.0000    0     1.008    7.095181    2.694171   -6.556866
  54 H     1.0000    0     1.008    4.621628    0.785321  -10.150847
  55 C     6.0000    0    12.011   -2.365478    0.195122   -4.848977
  56 H     1.0000    0     1.008   -3.615046   -0.687681   -6.247219
  57 N     7.0000    0    14.007   -3.115886    0.740837   -2.583046
  58 C     6.0000    0    12.011   -5.528757   -0.062013   -1.768963
  59 C     6.0000    0    12.011   -6.229456   -2.586769   -2.083610
  60 C     6.0000    0    12.011   -7.158097    1.616891   -0.522961
  61 C     6.0000    0    12.011   -8.543437   -3.379371   -1.120124
  62 H     1.0000    0     1.008   -4.982199   -3.924632   -3.030973
  63 C     6.0000    0    12.011   -9.476880    0.775540    0.387685
  64 H     1.0000    0     1.008   -6.605610    3.589595   -0.289327
  65 C     6.0000    0    12.011  -10.191699   -1.744348    0.114903
  66 H     1.0000    0     1.008  -10.738758    2.099185    1.341131
  67 N     7.0000    0    14.007   -9.239474   -6.052113   -1.403774
  68 O     8.0000    0    15.999   -7.683719   -7.474130   -2.346872
  69 O     8.0000    0    15.999  -11.330297   -6.699979   -0.678234
  70 N     7.0000    0    14.007    7.909876   -3.960811   -3.541109
  71 O     8.0000    0    15.999    9.107830   -5.468928   -4.809075
  72 O     8.0000    0    15.999    8.744957   -1.952622   -2.762048
  73 N     7.0000    0    14.007    4.334994   -3.226760    7.835974
  74 O     8.0000    0    15.999    2.049780   -3.511476    8.023686
  75 O     8.0000    0    15.999    5.902291   -4.418548    9.035221
  76 H     1.0000    0     1.008  -11.983351   -2.445442    0.848500
  77 H     1.0000    0     1.008    5.349308   -8.062677   -5.064772
  78 H     1.0000    0     1.008    9.161470   -2.395545    6.516345

--------------------------------
INTERNAL COORDINATES (ANGSTROEM)
--------------------------------
 Fe     0   0   0     0.000000000000     0.00000000     0.00000000
 N      1   0   0     1.991016996380     0.00000000     0.00000000
 C      2   1   0     1.362281688638   113.94562936     0.00000000
 C      2   1   3     1.337338565092   127.53122448   175.98470503
 C      3   2   1     1.394581504249   122.33323663   177.80794563
 C      4   2   1     1.393987546035   122.31552111   182.73968017
 H      4   2   1     1.091804707739   117.04385136     2.39713569
 C      5   3   2     1.391270912749   118.82699135   359.52156505
 H      5   3   2     1.090779417430   119.27297124   179.81096839
 H      6   4   2     1.090412821171   119.16392518   180.36261754
 H      8   5   3     1.091003374029   120.58610804   179.94087574
 C      3   2   1     1.441188532991   113.83719208   357.96600036
 H     12   3   2     1.096397170239   120.83073834   180.87232192
 N     12   3   2     1.296767061979   116.88231919     0.60059344
 C     14  12   3     1.413767944347   119.70911110   177.31580922
 C     15  14  12     1.402414207092   121.18839366   307.69155494
 C     15  14  12     1.394928700971   118.95750615   130.68883139
 C     16  15  14     1.394145302403   120.15812053   184.33740015
 H     16  15  14     1.092989472639   119.63140229     2.63592189
 C     17  15  14     1.387807148248   118.74290828   175.85326444
 H     17  15  14     1.086906966886   121.32476948   353.77021318
 C     18  16  15     1.391241882826   120.65935745   359.58275597
 H     18  16  15     1.091222432594   119.54703571   178.76396802
 N      1   2   3     1.989045305422    96.83320459    92.08752889
 C     24   1   2     1.363755781531   114.02557239   169.85201358
 C     24   1   2     1.337325486518   127.47704949   352.01541697
 C     25  24   1     1.394561240830   122.32329972   183.63488324
 C     26  24   1     1.394212131965   122.24255885   176.44968421
 H     26  24   1     1.092579683056   117.07332182   357.25889204
 C     27  25  24     1.391655431971   118.76886952   359.25960667
 H     27  25  24     1.091195374569   119.27786864   179.96312964
 H     28  26  24     1.090376763825   119.19620424   180.19045822
 H     30  27  25     1.091080993325   120.57838680   179.98945710
 C     25  24   1     1.442376208229   113.96815421     6.55406213
 H     34  25  24     1.097151929119   120.51556966   179.74208233
 N     34  25  24     1.297932758954   116.71736348     3.09150270
 C     36  34  25     1.410756981664   120.16091196   181.13940012
 C     37  36  34     1.403754475427   121.77064821    41.52010220
 C     37  36  34     1.397067586922   118.48693122   219.04580976
 C     38  37  36     1.393803424698   120.13447947   177.09641611
 H     38  37  36     1.092647968163   119.85974371   358.11190994
 C     39  37  36     1.387603674283   118.84119920   182.62902893
 H     39  37  36     1.088381235354   121.02857142     3.29248405
 C     40  38  37     1.391713900664   120.71088621     0.12592095
 H     40  38  37     1.091149238507   119.56225142   180.71260342
 N      1   2   3     2.008082040004    87.77458535   266.39235012
 C     46   1   2     1.361347654179   113.86506936   258.81324813
 C     46   1   2     1.336958649950   127.98091651    79.79268016
 C     47  46   1     1.394758878417   122.44734648   182.72652167
 C     48  46   1     1.394335123164   122.57091841   177.41510652
 H     48  46   1     1.091857535361   117.17982816   358.60879474
 C     50  48  46     1.391482906327   119.38872350     0.21332598
 H     49  47  46     1.090828572480   119.22752275   179.33779366
 H     50  48  46     1.090353075520   119.13485725   180.90366868
 H     52  50  48     1.091043642004   120.83954282   180.57179266
 C     47  46   1     1.441568804680   114.13662961     2.21953628
 H     56  47  46     1.096794640329   120.50907780   182.70656210
 N     56  47  46     1.295712912817   117.18266560     2.95688150
 C     58  56  47     1.412937070018   119.47801055   186.79973583
 C     59  58  56     1.396503730858   119.42315303    50.34128543
 C     59  58  56     1.402668349497   120.55414498   226.67109740
 C     60  59  58     1.391145597481   118.58472597   175.78753890
 H     60  59  58     1.090031386621   121.02667025   356.92680603
 C     61  59  58     1.391434372809   120.14576145   183.32964223
 H     61  59  58     1.091105019030   119.64011258     3.96011627
 C     62  60  59     1.391581261415   122.43712072     0.78577137
 H     64  61  59     1.091367232907   119.62461484   180.49655754
 N     62  60  59     1.469214867351   118.25932290   181.47710801
 O     68  62  60     1.221922710427   117.75271619     4.06199197
 O     68  62  60     1.220287688897   117.75003016   183.96658023
 N     42  39  37     1.469428049278   118.14290797   178.90925672
 O     71  42  39     1.220238264874   117.72123499   178.48917595
 O     71  42  39     1.222516188155   117.79537044   358.19342833
 N     20  17  15     1.469105897661   118.02159670   181.10936281
 O     74  20  17     1.222674266190   117.72973027     6.21583788
 O     74  20  17     1.219976909933   117.76761749   185.78678609
 H     66  62  60     1.089605571489   120.06675211   180.26368987
 H     44  40  38     1.089520958228   121.72133766   180.68442712
 H     22  18  16     1.089581358793   121.74961029   179.25450092

---------------------------
INTERNAL COORDINATES (A.U.)
---------------------------
 Fe     0   0   0     0.000000000000     0.00000000     0.00000000
 N      1   0   0     3.762476851141     0.00000000     0.00000000
 C      2   1   0     2.574339308781   113.94562936     0.00000000
 C      2   1   3     2.527203636355   127.53122448   175.98470503
 C      3   2   1     2.635377114463   122.33323663   177.80794563
 C      4   2   1     2.634254696103   122.31552111   182.73968017
 H      4   2   1     2.063211889353   117.04385136     2.39713569
 C      5   3   2     2.629121003187   118.82699135   359.52156505
 H      5   3   2     2.061274371461   119.27297124   179.81096839
 H      6   4   2     2.060581604930   119.16392518   180.36261754
 H      8   5   3     2.061697588098   120.58610804   179.94087574
 C      3   2   1     2.723451634701   113.83719208   357.96600036
 H     12   3   2     2.071890385759   120.83073834   180.87232192
 N     12   3   2     2.450534606630   116.88231919     0.60059344
 C     14  12   3     2.671634231733   119.70911110   177.31580922
 C     15  14  12     2.650178777724   121.18839366   307.69155494
 C     15  14  12     2.636033221183   118.95750615   130.68883139
 C     16  15  14     2.634552812435   120.15812053   184.33740015
 H     16  15  14     2.065450770546   119.63140229     2.63592189
 C     17  15  14     2.622575436887   118.74290828   175.85326444
 H     17  15  14     2.053956500465   121.32476948   353.77021318
 C     18  16  15     2.629066144582   120.65935745   359.58275597
 H     18  16  15     2.062111548795   119.54703571   178.76396802
 N      1   2   3     3.758750895209    96.83320459    92.08752889
 C     24   1   2     2.577124940645   114.02557239   169.85201358
 C     24   1   2     2.527178921432   127.47704949   352.01541697
 C     25  24   1     2.635338822151   122.32329972   183.63488324
 C     26  24   1     2.634679102004   122.24255885   176.44968421
 H     26  24   1     2.064676380463   117.07332182   357.25889204
 C     27  25  24     2.629847639208   118.76886952   359.25960667
 H     27  25  24     2.062060416536   119.27786864   179.96312964
 H     28  26  24     2.060513466420   119.19620424   180.19045822
 H     30  27  25     2.061844267310   120.57838680   179.98945710
 C     25  24   1     2.725696015637   113.96815421     6.55406213
 H     34  25  24     2.073316673339   120.51556966   179.74208233
 N     34  25  24     2.452737454668   116.71736348     3.09150270
 C     36  34  25     2.665944336863   120.16091196   181.13940012
 C     37  36  34     2.652711517823   121.77064821    41.52010220
 C     37  36  34     2.640075129861   118.48693122   219.04580976
 C     38  37  36     2.633906757202   120.13447947   177.09641611
 H     38  37  36     2.064805420613   119.85974371   358.11190994
 C     39  37  36     2.622190926818   118.84119920   182.62902893
 H     39  37  36     2.056742464117   121.02857142     3.29248405
 C     40  38  37     2.629958129026   120.71088621     0.12592095
 H     40  38  37     2.061973232015   119.56225142   180.71260342
 N      1   2   3     3.794725110053    87.77458535   266.39235012
 C     46   1   2     2.572574239454   113.86506936   258.81324813
 C     46   1   2     2.526485700783   127.98091651    79.79268016
 C     47  46   1     2.635712303063   122.44734648   182.72652167
 C     48  46   1     2.634911521688   122.57091841   177.41510652
 H     48  46   1     2.063311719090   117.17982816   358.60879474
 C     50  48  46     2.629521612991   119.38872350     0.21332598
 H     49  47  46     2.061367261044   119.22752275   179.33779366
 H     50  48  46     2.060468702012   119.13485725   180.90366868
 H     52  50  48     2.061773683544   120.83954282   180.57179266
 C     47  46   1     2.724170244050   114.13662961     2.21953628
 H     56  47  46     2.072641495374   120.50907780   182.70656210
 N     56  47  46     2.448542553410   117.18266560     2.95688150
 C     58  56  47     2.670064106800   119.47801055   186.79973583
 C     59  58  56     2.639009596321   119.42315303    50.34128543
 C     59  58  56     2.650659037268   120.55414498   226.67109740
 C     60  59  58     2.628884191649   118.58472597   175.78753890
 H     60  59  58     2.059860798091   121.02667025   356.92680603
 C     61  59  58     2.629429897933   120.14576145   183.32964223
 H     61  59  58     2.061889669313   119.64011258     3.96011627
 C     62  60  59     2.629707477171   122.43712072     0.78577137
 H     64  61  59     2.062385181729   119.62461484   180.49655754
 N     62  60  59     2.776413731179   118.25932290   181.47710801
 O     68  62  60     2.309099279526   117.75271619     4.06199197
 O     68  62  60     2.306009536611   117.75003016   183.96658023
 N     42  39  37     2.776816586637   118.14290797   178.90925672
 O     71  42  39     2.305916138743   117.72123499   178.48917595
 O     71  42  39     2.310220789898   117.79537044   358.19342833
 N     20  17  15     2.776207808308   118.02159670   181.10936281
 O     74  20  17     2.310519514092   117.72973027     6.21583788
 O     74  20  17     2.305422249480   117.76761749   185.78678609
 H     66  62  60     2.059056124108   120.06675211   180.26368987
 H     44  40  38     2.058896228218   121.72133766   180.68442712
 H     22  18  16     2.059010368744   121.74961029   179.25450092

---------------------
BASIS SET INFORMATION
---------------------
There are 5 groups of distinct atoms

 Group   1 Type Fe  : 14s9p5d1f contracted to 5s3p2d1f pattern {63311/531/41/1}
 Group   2 Type N   : 7s4p1d contracted to 3s2p1d pattern {511/31/1}
 Group   3 Type C   : 7s4p1d contracted to 3s2p1d pattern {511/31/1}
 Group   4 Type H   : 4s1p contracted to 2s1p pattern {31/1}
 Group   5 Type O   : 7s4p1d contracted to 3s2p1d pattern {511/31/1}

Atom   0Fe   basis set group =>   1
Atom   1N    basis set group =>   2
Atom   2C    basis set group =>   3
Atom   3C    basis set group =>   3
Atom   4C    basis set group =>   3
Atom   5C    basis set group =>   3
Atom   6H    basis set group =>   4
Atom   7C    basis set group =>   3
Atom   8H    basis set group =>   4
Atom   9H    basis set group =>   4
Atom  10H    basis set group =>   4
Atom  11C    basis set group =>   3
Atom  12H    basis set group =>   4
Atom  13N    basis set group =>   2
Atom  14C    basis set group =>   3
Atom  15C    basis set group =>   3
Atom  16C    basis set group =>   3
Atom  17C    basis set group =>   3
Atom  18H    basis set group =>   4
Atom  19C    basis set group =>   3
Atom  20H    basis set group =>   4
Atom  21C    basis set group =>   3
Atom  22H    basis set group =>   4
Atom  23N    basis set group =>   2
Atom  24C    basis set group =>   3
Atom  25C    basis set group =>   3
Atom  26C    basis set group =>   3
Atom  27C    basis set group =>   3
Atom  28H    basis set group =>   4
Atom  29C    basis set group =>   3
Atom  30H    basis set group =>   4
Atom  31H    basis set group =>   4
Atom  32H    basis set group =>   4
Atom  33C    basis set group =>   3
Atom  34H    basis set group =>   4
Atom  35N    basis set group =>   2
Atom  36C    basis set group =>   3
Atom  37C    basis set group =>   3
Atom  38C    basis set group =>   3
Atom  39C    basis set group =>   3
Atom  40H    basis set group =>   4
Atom  41C    basis set group =>   3
Atom  42H    basis set group =>   4
Atom  43C    basis set group =>   3
Atom  44H    basis set group =>   4
Atom  45N    basis set group =>   2
Atom  46C    basis set group =>   3
Atom  47C    basis set group =>   3
Atom  48C    basis set group =>   3
Atom  49C    basis set group =>   3
Atom  50H    basis set group =>   4
Atom  51C    basis set group =>   3
Atom  52H    basis set group =>   4
Atom  53H    basis set group =>   4
Atom  54H    basis set group =>   4
Atom  55C    basis set group =>   3
Atom  56H    basis set group =>   4
Atom  57N    basis set group =>   2
Atom  58C    basis set group =>   3
Atom  59C    basis set group =>   3
Atom  60C    basis set group =>   3
Atom  61C    basis set group =>   3
Atom  62H    basis set group =>   4
Atom  63C    basis set group =>   3
Atom  64H    basis set group =>   4
Atom  65C    basis set group =>   3
Atom  66H    basis set group =>   4
Atom  67N    basis set group =>   2
Atom  68O    basis set group =>   5
Atom  69O    basis set group =>   5
Atom  70N    basis set group =>   2
Atom  71O    basis set group =>   5
Atom  72O    basis set group =>   5
Atom  73N    basis set group =>   2
Atom  74O    basis set group =>   5
Atom  75O    basis set group =>   5
Atom  76H    basis set group =>   4
Atom  77H    basis set group =>   4
Atom  78H    basis set group =>   4
---------------------------------
AUXILIARY/J BASIS SET INFORMATION
---------------------------------
There are 5 groups of distinct atoms

 Group   1 Type Fe  : 19s5p5d3f3g contracted to 8s5p5d2f3g pattern {121111111/11111/11111/21/111}
 Group   2 Type N   : 12s5p4d2f1g contracted to 6s4p3d1f1g pattern {711111/2111/211/2/1}
 Group   3 Type C   : 12s5p4d2f1g contracted to 6s4p3d1f1g pattern {711111/2111/211/2/1}
 Group   4 Type H   : 5s2p1d contracted to 3s1p1d pattern {311/2/1}
 Group   5 Type O   : 12s5p4d2f1g contracted to 6s4p3d1f1g pattern {711111/2111/211/2/1}

Atom   0Fe   basis set group =>   1
Atom   1N    basis set group =>   2
Atom   2C    basis set group =>   3
Atom   3C    basis set group =>   3
Atom   4C    basis set group =>   3
Atom   5C    basis set group =>   3
Atom   6H    basis set group =>   4
Atom   7C    basis set group =>   3
Atom   8H    basis set group =>   4
Atom   9H    basis set group =>   4
Atom  10H    basis set group =>   4
Atom  11C    basis set group =>   3
Atom  12H    basis set group =>   4
Atom  13N    basis set group =>   2
Atom  14C    basis set group =>   3
Atom  15C    basis set group =>   3
Atom  16C    basis set group =>   3
Atom  17C    basis set group =>   3
Atom  18H    basis set group =>   4
Atom  19C    basis set group =>   3
Atom  20H    basis set group =>   4
Atom  21C    basis set group =>   3
Atom  22H    basis set group =>   4
Atom  23N    basis set group =>   2
Atom  24C    basis set group =>   3
Atom  25C    basis set group =>   3
Atom  26C    basis set group =>   3
Atom  27C    basis set group =>   3
Atom  28H    basis set group =>   4
Atom  29C    basis set group =>   3
Atom  30H    basis set group =>   4
Atom  31H    basis set group =>   4
Atom  32H    basis set group =>   4
Atom  33C    basis set group =>   3
Atom  34H    basis set group =>   4
Atom  35N    basis set group =>   2
Atom  36C    basis set group =>   3
Atom  37C    basis set group =>   3
Atom  38C    basis set group =>   3
Atom  39C    basis set group =>   3
Atom  40H    basis set group =>   4
Atom  41C    basis set group =>   3
Atom  42H    basis set group =>   4
Atom  43C    basis set group =>   3
Atom  44H    basis set group =>   4
Atom  45N    basis set group =>   2
Atom  46C    basis set group =>   3
Atom  47C    basis set group =>   3
Atom  48C    basis set group =>   3
Atom  49C    basis set group =>   3
Atom  50H    basis set group =>   4
Atom  51C    basis set group =>   3
Atom  52H    basis set group =>   4
Atom  53H    basis set group =>   4
Atom  54H    basis set group =>   4
Atom  55C    basis set group =>   3
Atom  56H    basis set group =>   4
Atom  57N    basis set group =>   2
Atom  58C    basis set group =>   3
Atom  59C    basis set group =>   3
Atom  60C    basis set group =>   3
Atom  61C    basis set group =>   3
Atom  62H    basis set group =>   4
Atom  63C    basis set group =>   3
Atom  64H    basis set group =>   4
Atom  65C    basis set group =>   3
Atom  66H    basis set group =>   4
Atom  67N    basis set group =>   2
Atom  68O    basis set group =>   5
Atom  69O    basis set group =>   5
Atom  70N    basis set group =>   2
Atom  71O    basis set group =>   5
Atom  72O    basis set group =>   5
Atom  73N    basis set group =>   2
Atom  74O    basis set group =>   5
Atom  75O    basis set group =>   5
Atom  76H    basis set group =>   4
Atom  77H    basis set group =>   4
Atom  78H    basis set group =>   4
---------------------------------
AUXILIARY/C BASIS SET INFORMATION
---------------------------------
There are 5 groups of distinct atoms

 Group   1 Type Fe  : 9s9p6d4f3g2h contracted to 9s9p6d4f3g2h pattern {111111111/111111111/111111/1111/111/11}
 Group   2 Type N   : 8s6p5d3f contracted to 6s5p4d1f pattern {311111/21111/2111/3}
 Group   3 Type C   : 8s6p5d3f contracted to 6s5p4d1f pattern {311111/21111/2111/3}
 Group   4 Type H   : 4s3p2d contracted to 3s2p1d pattern {211/21/2}
 Group   5 Type O   : 8s6p5d3f contracted to 6s5p4d1f pattern {311111/21111/2111/3}

Atom   0Fe   basis set group =>   1
Atom   1N    basis set group =>   2
Atom   2C    basis set group =>   3
Atom   3C    basis set group =>   3
Atom   4C    basis set group =>   3
Atom   5C    basis set group =>   3
Atom   6H    basis set group =>   4
Atom   7C    basis set group =>   3
Atom   8H    basis set group =>   4
Atom   9H    basis set group =>   4
Atom  10H    basis set group =>   4
Atom  11C    basis set group =>   3
Atom  12H    basis set group =>   4
Atom  13N    basis set group =>   2
Atom  14C    basis set group =>   3
Atom  15C    basis set group =>   3
Atom  16C    basis set group =>   3
Atom  17C    basis set group =>   3
Atom  18H    basis set group =>   4
Atom  19C    basis set group =>   3
Atom  20H    basis set group =>   4
Atom  21C    basis set group =>   3
Atom  22H    basis set group =>   4
Atom  23N    basis set group =>   2
Atom  24C    basis set group =>   3
Atom  25C    basis set group =>   3
Atom  26C    basis set group =>   3
Atom  27C    basis set group =>   3
Atom  28H    basis set group =>   4
Atom  29C    basis set group =>   3
Atom  30H    basis set group =>   4
Atom  31H    basis set group =>   4
Atom  32H    basis set group =>   4
Atom  33C    basis set group =>   3
Atom  34H    basis set group =>   4
Atom  35N    basis set group =>   2
Atom  36C    basis set group =>   3
Atom  37C    basis set group =>   3
Atom  38C    basis set group =>   3
Atom  39C    basis set group =>   3
Atom  40H    basis set group =>   4
Atom  41C    basis set group =>   3
Atom  42H    basis set group =>   4
Atom  43C    basis set group =>   3
Atom  44H    basis set group =>   4
Atom  45N    basis set group =>   2
Atom  46C    basis set group =>   3
Atom  47C    basis set group =>   3
Atom  48C    basis set group =>   3
Atom  49C    basis set group =>   3
Atom  50H    basis set group =>   4
Atom  51C    basis set group =>   3
Atom  52H    basis set group =>   4
Atom  53H    basis set group =>   4
Atom  54H    basis set group =>   4
Atom  55C    basis set group =>   3
Atom  56H    basis set group =>   4
Atom  57N    basis set group =>   2
Atom  58C    basis set group =>   3
Atom  59C    basis set group =>   3
Atom  60C    basis set group =>   3
Atom  61C    basis set group =>   3
Atom  62H    basis set group =>   4
Atom  63C    basis set group =>   3
Atom  64H    basis set group =>   4
Atom  65C    basis set group =>   3
Atom  66H    basis set group =>   4
Atom  67N    basis set group =>   2
Atom  68O    basis set group =>   5
Atom  69O    basis set group =>   5
Atom  70N    basis set group =>   2
Atom  71O    basis set group =>   5
Atom  72O    basis set group =>   5
Atom  73N    basis set group =>   2
Atom  74O    basis set group =>   5
Atom  75O    basis set group =>   5
Atom  76H    basis set group =>   4
Atom  77H    basis set group =>   4
Atom  78H    basis set group =>   4


           ************************************************************
           *        Program running with 8 parallel MPI-processes     *
           *              working on a common directory               *
           ************************************************************
------------------------------------------------------------------------------
                           ORCA GTO INTEGRAL CALCULATION
                           -- RI-GTO INTEGRALS CHOSEN --
------------------------------------------------------------------------------
------------------------------------------------------------------------------
                   ___                                                        
                  /   \      - P O W E R E D   B Y -                         
                 /     \                                                     
                 |  |  |   _    _      __       _____    __    __             
                 |  |  |  | |  | |    /  \     |  _  \  |  |  /  |          
                  \  \/   | |  | |   /    \    | | | |  |  | /  /          
                 / \  \   | |__| |  /  /\  \   | |_| |  |  |/  /          
                |  |  |   |  __  | /  /__\  \  |    /   |      \           
                |  |  |   | |  | | |   __   |  |    \   |  |\   \          
                \     /   | |  | | |  |  |  |  | |\  \  |  | \   \       
                 \___/    |_|  |_| |__|  |__|  |_| \__\ |__|  \__/        
                                                                              
                      - O R C A' S   B I G   F R I E N D -                    
                                      &                                       
                       - I N T E G R A L  F E E D E R -                       
                                                                              
 v1 FN, 2020, v2 2021                                                         
------------------------------------------------------------------------------


Reading SHARK input file FeC_4_wB2PYLP_def2SVP.SHARKINP.tmp ... ok
----------------------
SHARK INTEGRAL PACKAGE
----------------------

Number of atoms                             ...     79
Number of basis functions                   ...    880
Number of shells                            ...    398
Maximum angular momentum                    ...      3
Integral batch strategy                     ... SHARK/LIBINT Hybrid
RI-J (if used) integral strategy            ... SPLIT-RIJ (Revised 2003 algorithm where possible)
Printlevel                                  ...      1
Contraction scheme used                     ... SEGMENTED contraction
Coulomb Range Separation                    ... NOT USED
Exchange Range Separation                   ... Long Range
   Mu parameter                             ...  0.300000
   Scaling (regular/separated)              ...  0.530000  0.470000
Finite Nucleus Model                        ... NOT USED
Auxiliary Coulomb fitting basis             ... AVAILABLE
   # of basis functions in Aux-J            ...   2885
   # of shells in Aux-J                     ...    923
   Maximum angular momentum in Aux-J        ...      4
Auxiliary J/K fitting basis                 ... NOT available
Auxiliary Correlation fitting basis         ... AVAILABLE
   # of basis functions in Aux-C            ...   2969
   # of shells in Aux-C                     ...   1011
   Maximum angular momentum in Aux-C        ...      5
Auxiliary 'external' fitting basis          ... NOT available
Integral threshold                          ...     2.500000e-11
Primitive cut-off                           ...     2.500000e-12
Primitive pair pre-selection threshold      ...     2.500000e-12

Calculating pre-screening integrals         ... done (  0.1 sec) Dimension = 398
Organizing shell pair data                  ... done (  0.2 sec)
Shell pair information
Total number of shell pairs                 ...     79401
Shell pairs after pre-screening             ...     48676
Total number of primitive shell pairs       ...    302260
Primitive shell pairs kept                  ...    106083
          la=0 lb=0:  14275 shell pairs
          la=1 lb=0:  18072 shell pairs
          la=1 lb=1:   5821 shell pairs
          la=2 lb=0:   5905 shell pairs
          la=2 lb=1:   3814 shell pairs
          la=2 lb=2:    537 shell pairs
          la=3 lb=0:    133 shell pairs
          la=3 lb=1:     89 shell pairs
          la=3 lb=2:     29 shell pairs
          la=3 lb=3:      1 shell pairs

Calculating one electron integrals          ... done (  0.1 sec)
Calculating RI/J V-Matrix + Cholesky decomp.... done (  0.4 sec)
Calculating RI/C V-Matrix + Cholesky decomp.... done (  0.4 sec)
Calculating Nuclear repulsion               ... done (  0.0 sec) ENN=   8281.107286528508 Eh

SHARK setup successfully completed in   1.5 seconds

Maximum memory used throughout the entire GTOINT-calculation: 87.7 MB


           ************************************************************
           *        Program running with 8 parallel MPI-processes     *
           *              working on a common directory               *
           ************************************************************
-------------------------------------------------------------------------------
                                 ORCA SCF
-------------------------------------------------------------------------------

------------
SCF SETTINGS
------------
Hamiltonian:
 Density Functional     Method          .... DFT(GTOs)
 Exchange Functional    Exchange        .... WB88
 Correlation Functional Correlation     .... LYP
 LDA part of GGA corr.  LDAOpt          .... VWN-3
 Gradients option       PostSCFGGA      .... off
 Hybrid DFT is turned on
   Fraction HF Exchange ScalHFX         ....  0.530000
   Scaling of DF-GGA-X  ScalDFX         ....  0.000000
   Scaling of DF-GGA-C  ScalDFC         ....  0.730000
   Scaling of DF-LDA-C  ScalLDAC        ....  0.730000
   Perturbative correction              ....  0.270000
   Density functional embedding theory  .... OFF
 Long-range corrected/Screened/Range-Separated Hybrid DFT is turned on
   Amount of maximum screened exact exchange              ....  0.470000
   Range separation parameter mu (erf(mu*r12)/r12)        ....  0.300000
 RI-approximation to the Coulomb term is turned on
   Number of AuxJ basis functions       .... 2885
   RIJ-COSX (HFX calculated with COS-X)).... on


General Settings:
 Integral files         IntName         .... FeC_4_wB2PYLP_def2SVP
 Hartree-Fock type      HFTyp           .... RHF
 Total Charge           Charge          ....    2
 Multiplicity           Mult            ....    1
 Number of Electrons    NEL             ....  378
 Basis Dimension        Dim             ....  880
 Nuclear Repulsion      ENuc            ....   8281.1072865285 Eh

Convergence Acceleration:
 DIIS                   CNVDIIS         .... on
   Start iteration      DIISMaxIt       ....    12
   Startup error        DIISStart       ....  0.200000
   # of expansion vecs  DIISMaxEq       ....     5
   Bias factor          DIISBfac        ....   1.050
   Max. coefficient     DIISMaxC        ....  10.000
 Trust-Rad. Augm. Hess. CNVTRAH         .... auto
   Auto Start mean grad. ratio tolernc. ....  1.125000
   Auto Start start iteration           ....    20
   Auto Start num. interpolation iter.  ....    10
   Max. Number of Micro iterations      ....    16
   Max. Number of Macro iterations      .... Maxiter - #DIIS iter
   Number of Davidson start vectors     ....     2
   Converg. threshold I  (grad. norm)   ....   1.000e-05
   Converg. threshold II (energy diff.) ....   1.000e-08
   Grad. Scal. Fac. for Micro threshold ....   0.100
   Minimum threshold for Micro iter.    ....   0.010
   NR start threshold (gradient norm)   ....   0.001
   Initial trust radius                 ....   0.400
   Minimum AH scaling param. (alpha)    ....   1.000
   Maximum AH scaling param. (alpha)    .... 1000.000
   Orbital update algorithm             .... Taylor
   White noise on init. David. guess    .... on
   Maximum white noise                  ....   0.010
   Quad. conv. algorithm                .... NR
 SOSCF                  CNVSOSCF        .... off
 Level Shifting         CNVShift        .... on
   Level shift para.    LevelShift      ....    0.2500
   Turn off err/grad.   ShiftErr        ....    0.0010
 Zerner damping         CNVZerner       .... off
 Static damping         CNVDamp         .... on
   Fraction old density DampFac         ....    0.7000
   Max. Damping (<1)    DampMax         ....    0.9800
   Min. Damping (>=0)   DampMin         ....    0.0000
   Turn off err/grad.   DampErr         ....    0.1000
 Fernandez-Rico         CNVRico         .... off

SCF Procedure:
 Maximum # iterations   MaxIter         ....   125
 SCF integral mode      SCFMode         .... Direct
   Integral package                     .... SHARK and LIBINT hybrid scheme
 Reset frequency        DirectResetFreq ....    20
 Integral Threshold     Thresh          ....  2.500e-11 Eh
 Primitive CutOff       TCut            ....  2.500e-12 Eh

Convergence Tolerance:
 Convergence Check Mode ConvCheckMode   .... Total+1el-Energy
 Convergence forced     ConvForced      .... 1
 Energy Change          TolE            ....  1.000e-08 Eh
 1-El. energy change                    ....  1.000e-05 Eh
 DIIS Error             TolErr          ....  5.000e-07


Diagonalization of the overlap matrix:
Smallest eigenvalue                        ... 2.130e-04
Time for diagonalization                   ...    0.135 sec
Threshold for overlap eigenvalues          ... 1.000e-08
Number of eigenvalues below threshold      ... 0
Time for construction of square roots      ...    0.073 sec
Total time needed                          ...    0.209 sec

Time for model grid setup =    0.837 sec

------------------------------
INITIAL GUESS: MODEL POTENTIAL
------------------------------
Loading Hartree-Fock densities                     ... done
Calculating cut-offs                               ... done
Initializing the effective Hamiltonian             ... done
Setting up the integral package (SHARK)            ... done
Starting the Coulomb interaction                   ... done (   0.8 sec)
Reading the grid                                   ... done
Mapping shells                                     ... done
Starting the XC term evaluation                    ... done (   0.3 sec)
  promolecular density results
     # of electrons  =    379.977145176
     EX              =   -354.242595303
     EC              =     -4.651853600
     EX+EC           =   -358.894448903
Transforming the Hamiltonian                       ... done (   0.1 sec)
Diagonalizing the Hamiltonian                      ... done (   0.1 sec)
Back transforming the eigenvectors                 ... done (   0.0 sec)
Now organizing SCF variables                       ... done
                      ------------------
                      INITIAL GUESS DONE (   2.2 sec)
                      ------------------
-------------------
DFT GRID GENERATION
-------------------

General Integration Accuracy     IntAcc      ... 4.388
Radial Grid Type                 RadialGrid  ... OptM3 with GC (2021)
Angular Grid (max. ang.)         AngularGrid ... 4 (Lebedev-302)
Angular grid pruning method      GridPruning ... 4 (adaptive)
Weight generation scheme         WeightScheme... Becke
Basis function cutoff            BFCut       ... 1.0000e-11
Integration weight cutoff        WCut        ... 1.0000e-14
Angular grids for H and He will be reduced by one unit
Partially contracted basis set               ... off
Rotationally invariant grid construction     ... off

Total number of grid points                  ...   396920
Total number of batches                      ...     6241
Average number of points per batch           ...       63
Average number of grid points per atom       ...     5024
Time for grid setup =    3.164 sec

--------------------
COSX GRID GENERATION
--------------------

GRIDX 1
-------
General Integration Accuracy     IntAcc      ... 3.816
Radial Grid Type                 RadialGrid  ... OptM3 with GC (2021)
Angular Grid (max. ang.)         AngularGrid ... 1 (Lebedev-50)
Angular grid pruning method      GridPruning ... 4 (adaptive)
Weight generation scheme         WeightScheme... Becke
Basis function cutoff            BFCut       ... 1.0000e-11
Integration weight cutoff        WCut        ... 1.0000e-14
Angular grids for H and He will be reduced by one unit
Partially contracted basis set               ... on
Rotationally invariant grid construction     ... off

Total number of grid points                  ...    49926
Total number of batches                      ...      811
Average number of points per batch           ...       61
Average number of grid points per atom       ...      632
UseSFitting                                  ... on

GRIDX 2
-------
General Integration Accuracy     IntAcc      ... 4.020
Radial Grid Type                 RadialGrid  ... OptM3 with GC (2021)
Angular Grid (max. ang.)         AngularGrid ... 2 (Lebedev-110)
Angular grid pruning method      GridPruning ... 4 (adaptive)
Weight generation scheme         WeightScheme... Becke
Basis function cutoff            BFCut       ... 1.0000e-11
Integration weight cutoff        WCut        ... 1.0000e-14
Angular grids for H and He will be reduced by one unit
Partially contracted basis set               ... on
Rotationally invariant grid construction     ... off

Total number of grid points                  ...   108867
Total number of batches                      ...     1738
Average number of points per batch           ...       62
Average number of grid points per atom       ...     1378
UseSFitting                                  ... on

GRIDX 3
-------
General Integration Accuracy     IntAcc      ... 4.338
Radial Grid Type                 RadialGrid  ... OptM3 with GC (2021)
Angular Grid (max. ang.)         AngularGrid ... 3 (Lebedev-194)
Angular grid pruning method      GridPruning ... 4 (adaptive)
Weight generation scheme         WeightScheme... Becke
Basis function cutoff            BFCut       ... 1.0000e-11
Integration weight cutoff        WCut        ... 1.0000e-14
Angular grids for H and He will be reduced by one unit
Partially contracted basis set               ... on
Rotationally invariant grid construction     ... off

Total number of grid points                  ...   237051
Total number of batches                      ...     3744
Average number of points per batch           ...       63
Average number of grid points per atom       ...     3001
UseSFitting                                  ... on

Time for X-Grid setup             =    3.434 sec


--------------------
CPCM SOLVATION MODEL
--------------------
CPCM parameters:
  Epsilon                                         ...      35.6880
  Refrac                                          ...       1.3442
  Rsolv                                           ...       1.3000
  Surface type                                    ... GAUSSIAN VDW
  Epsilon function type                           ...         CPCM
Solvent:                                     ... ACETONITRILE
SMD-CDS solvent descriptors:
  Soln                                       ...    1.3442
  Soln25                                     ...    1.3416
  Sola                                       ...    0.0700
  Solb                                       ...    0.3200
  Solg                                       ...   41.2500
  Solc                                       ...    0.0000
  Solh                                       ...    0.0000
Radii:
 Radius for Fe used is    3.6661 Bohr (=   1.9400 Ang.)
 Radius for N  used is    3.5716 Bohr (=   1.8900 Ang.)
 Radius for C  used is    3.4960 Bohr (=   1.8500 Ang.)
 Radius for H  used is    2.2677 Bohr (=   1.2000 Ang.)
 Radius for O  used is    4.0969 Bohr (=   2.1680 Ang.)
Calculating surface                               ...        done! (  0.0s)
GEPOL surface points                              ...         4221
GEPOL Volume                                      ...    4965.6842
GEPOL Surface-area                                ...    2354.1384
Calculating surface distance matrix               ...        done! (  0.1s)
Performing Cholesky decomposition & store         ...        done! (  0.5s)
Overall time for CPCM initialization              ...                 0.6s
--------------
SCF ITERATIONS
--------------
ITER       Energy         Delta-E        Max-DP      RMS-DP      [F,P]     Damp
               ***  Starting incremental Fock matrix formation  ***
  0  -3584.9651394426   0.000000000000 0.08499802  0.00132200  0.2322392 0.7000
  1  -3585.4145419029  -0.449402460377 0.05696653  0.00097777  0.1111631 0.7000
                               ***Turning on DIIS***
  2  -3585.6467529292  -0.232211026248 0.18642287  0.00224631  0.0660490 0.0000
  3  -3586.1189593339  -0.472206404748 0.04089560  0.00037730  0.0548461 0.0000
  4  -3586.1659393695  -0.046980035598 0.03675320  0.00021150  0.0298548 0.0000
  5  -3586.1761718934  -0.010232523829 0.03208914  0.00014787  0.0232552 0.0000
  6  -3586.1812695459  -0.005097652554 0.01688749  0.00009438  0.0143583 0.0000
  7  -3586.1833847117  -0.002115165762 0.00890631  0.00006122  0.0061178 0.0000
  8  -3586.1842411839  -0.000856472218 0.00337702  0.00002968  0.0018740 0.0000
  9  -3586.1844583722  -0.000217188259 0.00142184  0.00001598  0.0010090 0.0000
 10  -3586.1845172622  -0.000058890075 0.00127762  0.00001330  0.0005340 0.0000
               *** Restarting incremental Fock matrix formation ***
                                   *** Resetting DIIS ***
 11  -3586.1844190227   0.000098239538 0.00111162  0.00001652  0.0007706 0.0000
 12  -3586.1844218513  -0.000002828553 0.00070523  0.00000342  0.0008384 0.0000
 13  -3586.1844234693  -0.000001618033 0.00028755  0.00000249  0.0002976 0.0000
 14  -3586.1844241280  -0.000000658735 0.00027572  0.00000091  0.0001848 0.0000
 15  -3586.1844243071  -0.000000179054 0.00032047  0.00000103  0.0001410 0.0000
 16  -3586.1844244838  -0.000000176737 0.00023559  0.00000062  0.0000790 0.0000
 17  -3586.1844245356  -0.000000051791 0.00011882  0.00000032  0.0000369 0.0000
 18  -3586.1844245540  -0.000000018413 0.00007133  0.00000020  0.0000238 0.0000
 19  -3586.1844244782   0.000000075817 0.00003118  0.00000011  0.0000197 0.0000
 20  -3586.1844245183  -0.000000040090 0.00003248  0.00000012  0.0000172 0.0000
 21  -3586.1844245018   0.000000016449 0.00001713  0.00000006  0.0000137 0.0000
 22  -3586.1844244658   0.000000036061 0.00002179  0.00000007  0.0000117 0.0000
 23  -3586.1844244866  -0.000000020788 0.00001744  0.00000006  0.0000088 0.0000
 24  -3586.1844244260   0.000000060549 0.00002007  0.00000007  0.0000064 0.0000
 25  -3586.1844244604  -0.000000034331 0.00001376  0.00000005  0.0000038 0.0000
 26  -3586.1844244231   0.000000037269 0.00001288  0.00000004  0.0000027 0.0000
 27  -3586.1844244561  -0.000000033009 0.00000359  0.00000002  0.0000017 0.0000
 28  -3586.1844244899  -0.000000033792 0.00000297  0.00000001  0.0000011 0.0000
                            ***DIIS convergence achieved***

               *****************************************************
               *                     SUCCESS                       *
               *           SCF CONVERGED AFTER  29 CYCLES          *
               *****************************************************

Old exchange energy                            =   -217.798818862 Eh
New exchange energy                            =   -217.799027746 Eh
Exchange energy change after final integration =     -0.000208884 Eh
Total energy after final integration           =  -3586.184633442 Eh
Final COS-X integration done in                =    88.706 sec

SMD CDS free energy correction energy :                -6.61805     Kcal/mol
Total Energy after SMD CDS correction =             -3586.195179972 Eh

----------------
TOTAL SCF ENERGY
----------------

Total Energy       :        -3586.19517997 Eh          -97585.33199 eV

Components:
Nuclear Repulsion  :         8281.10728653 Eh          225340.38535 eV
Electronic Energy  :       -11867.30246650 Eh         -322925.71734 eV
One Electron Energy:       -21331.02958925 Eh         -580446.82447 eV
Two Electron Energy:         9463.72712275 Eh          257521.10713 eV
Max COSX asymmetry :            0.00002162 Eh               0.00059 eV
CPCM Dielectric    :           -0.28454242 Eh              -7.74279 eV
SMD CDS (Gcds)     :           -0.01054653 Eh              -0.28699 eV

Virial components:
Potential Energy   :        -7152.54225924 Eh         -194630.56970 eV
Kinetic Energy     :         3566.34707927 Eh           97045.23771 eV
Virial Ratio       :            2.00556539


DFT components:
N(Alpha)           :      189.000182353513 electrons
N(Beta)            :      189.000182353513 electrons
N(Total)           :      378.000364707027 electrons
E(X)               :     -138.657815920216 Eh       
E(C)               :       -9.829540355528 Eh       
E(XC)              :     -148.487356275745 Eh       
DFET-embed. en.    :        0.000000000000 Eh       
CPCM Solvation Model Properties:
Surface-charge          :           -2.03838224
Charge-correction       :            0.00680356 Eh               0.18513 eV
Free-energy (cav+disp)  :           -0.01054653 Eh              -0.28699 eV

---------------
SCF CONVERGENCE
---------------

  Last Energy change         ...   -6.8461e-08  Tolerance :   1.0000e-08
  Last MAX-Density change    ...    0.0000e+00  Tolerance :   1.0000e-07
  Last RMS-Density change    ...    0.0000e+00  Tolerance :   5.0000e-09
  Last DIIS Error            ...    7.6069e-07  Tolerance :   5.0000e-07

             **** THE GBW FILE WAS UPDATED (FeC_4_wB2PYLP_def2SVP.gbw) ****
             **** DENSITY FeC_4_wB2PYLP_def2SVP.scfp WAS UPDATED ****
             **** ENERGY FILE WAS UPDATED (FeC_4_wB2PYLP_def2SVP.en.tmp) ****
             **** THE GBW FILE WAS UPDATED (FeC_4_wB2PYLP_def2SVP.gbw) ****
             **** DENSITY FeC_4_wB2PYLP_def2SVP.scfp WAS UPDATED ****
----------------
ORBITAL ENERGIES
----------------

  NO   OCC          E(Eh)            E(eV) 
   0   2.0000    -258.339921     -7029.7866 
   1   2.0000     -30.877566      -840.2213 
   2   2.0000     -26.590734      -723.5706 
   3   2.0000     -26.590387      -723.5612 
   4   2.0000     -26.588340      -723.5055 
   5   2.0000     -19.850933      -540.1713 
   6   2.0000     -19.850352      -540.1555 
   7   2.0000     -19.850142      -540.1498 
   8   2.0000     -19.850081      -540.1482 
   9   2.0000     -19.849829      -540.1413 
  10   2.0000     -19.849554      -540.1338 
  11   2.0000     -15.192065      -413.3971 
  12   2.0000     -15.191437      -413.3800 
  13   2.0000     -15.191389      -413.3787 
  14   2.0000     -14.978718      -407.5916 
  15   2.0000     -14.978319      -407.5808 
  16   2.0000     -14.977564      -407.5602 
  17   2.0000     -14.976833      -407.5404 
  18   2.0000     -14.976828      -407.5402 
  19   2.0000     -14.976200      -407.5231 
  20   2.0000     -10.794292      -293.7276 
  21   2.0000     -10.794011      -293.7200 
  22   2.0000     -10.793710      -293.7118 
  23   2.0000     -10.776661      -293.2479 
  24   2.0000     -10.775554      -293.2177 
  25   2.0000     -10.775132      -293.2063 
  26   2.0000     -10.773033      -293.1491 
  27   2.0000     -10.772575      -293.1367 
  28   2.0000     -10.772073      -293.1230 
  29   2.0000     -10.768813      -293.0343 
  30   2.0000     -10.768490      -293.0255 
  31   2.0000     -10.767954      -293.0109 
  32   2.0000     -10.767623      -293.0019 
  33   2.0000     -10.767613      -293.0016 
  34   2.0000     -10.767509      -292.9988 
  35   2.0000     -10.741861      -292.3009 
  36   2.0000     -10.740981      -292.2770 
  37   2.0000     -10.740847      -292.2733 
  38   2.0000     -10.738461      -292.2084 
  39   2.0000     -10.738293      -292.2038 
  40   2.0000     -10.737898      -292.1930 
  41   2.0000     -10.737415      -292.1799 
  42   2.0000     -10.737159      -292.1730 
  43   2.0000     -10.736941      -292.1670 
  44   2.0000     -10.735171      -292.1189 
  45   2.0000     -10.734210      -292.0927 
  46   2.0000     -10.734206      -292.0926 
  47   2.0000     -10.733140      -292.0636 
  48   2.0000     -10.732651      -292.0503 
  49   2.0000     -10.731865      -292.0289 
  50   2.0000     -10.731633      -292.0226 
  51   2.0000     -10.731092      -292.0079 
  52   2.0000     -10.730784      -291.9995 
  53   2.0000     -10.725810      -291.8641 
  54   2.0000     -10.725678      -291.8605 
  55   2.0000     -10.724949      -291.8407 
  56   2.0000      -3.779626      -102.8488 
  57   2.0000      -2.474180       -67.3259 
  58   2.0000      -2.472588       -67.2825 
  59   2.0000      -2.467568       -67.1459 
  60   2.0000      -1.478123       -40.2218 
  61   2.0000      -1.477552       -40.2062 
  62   2.0000      -1.477372       -40.2013 
  63   2.0000      -1.285290       -34.9745 
  64   2.0000      -1.284622       -34.9563 
  65   2.0000      -1.284533       -34.9539 
  66   2.0000      -1.219643       -33.1882 
  67   2.0000      -1.209204       -32.9041 
  68   2.0000      -1.207392       -32.8548 
  69   2.0000      -1.176304       -32.0089 
  70   2.0000      -1.175563       -31.9887 
  71   2.0000      -1.174181       -31.9511 
  72   2.0000      -1.098191       -29.8833 
  73   2.0000      -1.097599       -29.8672 
  74   2.0000      -1.097103       -29.8537 
  75   2.0000      -1.027057       -27.9477 
  76   2.0000      -1.025790       -27.9132 
  77   2.0000      -1.024254       -27.8714 
  78   2.0000      -1.017492       -27.6874 
  79   2.0000      -1.016532       -27.6612 
  80   2.0000      -1.015968       -27.6459 
  81   2.0000      -0.995327       -27.0842 
  82   2.0000      -0.995147       -27.0793 
  83   2.0000      -0.994761       -27.0688 
  84   2.0000      -0.960060       -26.1246 
  85   2.0000      -0.959120       -26.0990 
  86   2.0000      -0.956407       -26.0252 
  87   2.0000      -0.894054       -24.3284 
  88   2.0000      -0.890145       -24.2221 
  89   2.0000      -0.889185       -24.1960 
  90   2.0000      -0.875664       -23.8280 
  91   2.0000      -0.873361       -23.7653 
  92   2.0000      -0.871934       -23.7265 
  93   2.0000      -0.834677       -22.7127 
  94   2.0000      -0.834228       -22.7005 
  95   2.0000      -0.833761       -22.6878 
  96   2.0000      -0.810907       -22.0659 
  97   2.0000      -0.806166       -21.9369 
  98   2.0000      -0.804950       -21.9038 
  99   2.0000      -0.789977       -21.4964 
 100   2.0000      -0.788278       -21.4501 
 101   2.0000      -0.776798       -21.1378 
 102   2.0000      -0.757823       -20.6214 
 103   2.0000      -0.754828       -20.5399 
 104   2.0000      -0.754085       -20.5197 
 105   2.0000      -0.735858       -20.0237 
 106   2.0000      -0.734040       -19.9742 
 107   2.0000      -0.733207       -19.9516 
 108   2.0000      -0.724016       -19.7015 
 109   2.0000      -0.710405       -19.3311 
 110   2.0000      -0.709155       -19.2971 
 111   2.0000      -0.708906       -19.2903 
 112   2.0000      -0.707537       -19.2531 
 113   2.0000      -0.706008       -19.2114 
 114   2.0000      -0.692485       -18.8435 
 115   2.0000      -0.690004       -18.7760 
 116   2.0000      -0.689167       -18.7532 
 117   2.0000      -0.677208       -18.4278 
 118   2.0000      -0.672793       -18.3076 
 119   2.0000      -0.672522       -18.3002 
 120   2.0000      -0.666560       -18.1380 
 121   2.0000      -0.666063       -18.1245 
 122   2.0000      -0.661838       -18.0095 
 123   2.0000      -0.651923       -17.7397 
 124   2.0000      -0.649847       -17.6832 
 125   2.0000      -0.648869       -17.6566 
 126   2.0000      -0.642234       -17.4761 
 127   2.0000      -0.639593       -17.4042 
 128   2.0000      -0.637742       -17.3538 
 129   2.0000      -0.634923       -17.2771 
 130   2.0000      -0.633791       -17.2463 
 131   2.0000      -0.627949       -17.0874 
 132   2.0000      -0.614833       -16.7305 
 133   2.0000      -0.609775       -16.5928 
 134   2.0000      -0.606331       -16.4991 
 135   2.0000      -0.604564       -16.4510 
 136   2.0000      -0.601619       -16.3709 
 137   2.0000      -0.596824       -16.2404 
 138   2.0000      -0.595219       -16.1967 
 139   2.0000      -0.590622       -16.0716 
 140   2.0000      -0.584837       -15.9142 
 141   2.0000      -0.580154       -15.7868 
 142   2.0000      -0.573043       -15.5933 
 143   2.0000      -0.566525       -15.4159 
 144   2.0000      -0.552919       -15.0457 
 145   2.0000      -0.547109       -14.8876 
 146   2.0000      -0.542592       -14.7647 
 147   2.0000      -0.535485       -14.5713 
 148   2.0000      -0.533149       -14.5077 
 149   2.0000      -0.532102       -14.4792 
 150   2.0000      -0.530132       -14.4256 
 151   2.0000      -0.529743       -14.4150 
 152   2.0000      -0.525160       -14.2903 
 153   2.0000      -0.524683       -14.2774 
 154   2.0000      -0.523145       -14.2355 
 155   2.0000      -0.516106       -14.0440 
 156   2.0000      -0.510222       -13.8839 
 157   2.0000      -0.504756       -13.7351 
 158   2.0000      -0.501230       -13.6392 
 159   2.0000      -0.489358       -13.3161 
 160   2.0000      -0.485376       -13.2077 
 161   2.0000      -0.481776       -13.1098 
 162   2.0000      -0.477413       -12.9911 
 163   2.0000      -0.471705       -12.8357 
 164   2.0000      -0.471693       -12.8354 
 165   2.0000      -0.470154       -12.7935 
 166   2.0000      -0.469434       -12.7739 
 167   2.0000      -0.464992       -12.6531 
 168   2.0000      -0.462021       -12.5722 
 169   2.0000      -0.461165       -12.5489 
 170   2.0000      -0.460490       -12.5306 
 171   2.0000      -0.450486       -12.2584 
 172   2.0000      -0.450007       -12.2453 
 173   2.0000      -0.449551       -12.2329 
 174   2.0000      -0.447794       -12.1851 
 175   2.0000      -0.433589       -11.7986 
 176   2.0000      -0.414519       -11.2796 
 177   2.0000      -0.411009       -11.1841 
 178   2.0000      -0.398265       -10.8374 
 179   2.0000      -0.396799       -10.7975 
 180   2.0000      -0.391355       -10.6493 
 181   2.0000      -0.388176       -10.5628 
 182   2.0000      -0.386804       -10.5255 
 183   2.0000      -0.383921       -10.4470 
 184   2.0000      -0.382403       -10.4057 
 185   2.0000      -0.380550       -10.3553 
 186   2.0000      -0.355345        -9.6694 
 187   2.0000      -0.353094        -9.6082 
 188   2.0000      -0.349266        -9.5040 
 189   0.0000      -0.018474        -0.5027 
 190   0.0000      -0.014083        -0.3832 
 191   0.0000      -0.012755        -0.3471 
 192   0.0000      -0.001325        -0.0361 
 193   0.0000       0.001340         0.0365 
 194   0.0000       0.002195         0.0597 
 195   0.0000       0.045248         1.2313 
 196   0.0000       0.050665         1.3787 
 197   0.0000       0.052876         1.4388 
 198   0.0000       0.069921         1.9027 
 199   0.0000       0.071186         1.9371 
 200   0.0000       0.077938         2.1208 
 201   0.0000       0.100714         2.7406 
 202   0.0000       0.103948         2.8286 
 203   0.0000       0.105136         2.8609 
 204   0.0000       0.124911         3.3990 
 205   0.0000       0.128205         3.4886 
 206   0.0000       0.130909         3.5622 
 207   0.0000       0.132311         3.6004 
 208   0.0000       0.156136         4.2487 
 209   0.0000       0.157698         4.2912 
 210   0.0000       0.164862         4.4861 
 211   0.0000       0.166068         4.5189 
 212   0.0000       0.168694         4.5904 
 213   0.0000       0.173553         4.7226 
 214   0.0000       0.175800         4.7838 
 215   0.0000       0.184304         5.0152 
 216   0.0000       0.185035         5.0351 
 217   0.0000       0.196782         5.3547 
 218   0.0000       0.197198         5.3660 
 219   0.0000       0.206806         5.6275 
 220   0.0000       0.207446         5.6449 
 221   0.0000       0.212177         5.7736 
 222   0.0000       0.216423         5.8892 
 223   0.0000       0.219866         5.9829 
 224   0.0000       0.224891         6.1196 
 225   0.0000       0.225490         6.1359 
 226   0.0000       0.227885         6.2011 
 227   0.0000       0.229815         6.2536 
 228   0.0000       0.238075         6.4784 
 229   0.0000       0.238484         6.4895 
 230   0.0000       0.241165         6.5624 
 231   0.0000       0.245188         6.6719 
 232   0.0000       0.247036         6.7222 
 233   0.0000       0.251762         6.8508 
 234   0.0000       0.255312         6.9474 
 235   0.0000       0.261958         7.1283 
 236   0.0000       0.266893         7.2625 
 237   0.0000       0.270572         7.3626 
 238   0.0000       0.275241         7.4897 
 239   0.0000       0.278307         7.5731 
 240   0.0000       0.279927         7.6172 
 241   0.0000       0.283616         7.7176 
 242   0.0000       0.288898         7.8613 
 243   0.0000       0.294433         8.0119 
 244   0.0000       0.298130         8.1125 
 245   0.0000       0.302789         8.2393 
 246   0.0000       0.309814         8.4305 
 247   0.0000       0.324939         8.8420 
 248   0.0000       0.328784         8.9467 
[...]
   186a -> 197a  :     0.016006 
   187a -> 196a  :     0.024274 
   188a -> 191a  :     0.021202 
   188a -> 195a  :     0.052394 
   188a -> 197a  :     0.011292 

STATE 37:  E=   0.180903 au      4.923 eV    39703.6 cm**-1 <S**2> =   0.000000
   171a -> 191a  :     0.017090 
   174a -> 191a  :     0.072944 
   175a -> 189a  :     0.016131 
   175a -> 191a  :     0.054919 
   176a -> 191a  :     0.097967 
   177a -> 189a  :     0.013341 
   179a -> 191a  :     0.014305 
   179a -> 195a  :     0.020867 
   179a -> 196a  :     0.016448 
   180a -> 191a  :     0.025037 
   180a -> 196a  :     0.015352 
   181a -> 191a  :     0.082376 
   182a -> 189a  :     0.012663 
   182a -> 197a  :     0.018521 
   185a -> 191a  :     0.020928 
   186a -> 195a  :     0.012548 
   186a -> 196a  :     0.017553 
   187a -> 189a  :     0.017994 
   187a -> 195a  :     0.016570 
   187a -> 196a  :     0.032728 
   187a -> 197a  :     0.031391 
   188a -> 195a  :     0.015463 
   188a -> 197a  :     0.014374 

STATE 38:  E=   0.185561 au      5.049 eV    40726.0 cm**-1 <S**2> =   0.000000
   162a -> 190a  :     0.014808 
   167a -> 190a  :     0.037571 
   176a -> 190a  :     0.025685 
   177a -> 190a  :     0.264741 
   177a -> 191a  :     0.012225 
   177a -> 194a  :     0.025629 
   178a -> 190a  :     0.034552 
   182a -> 189a  :     0.015753 
   182a -> 190a  :     0.012777 
   183a -> 189a  :     0.011615 
   185a -> 190a  :     0.018096 
   186a -> 190a  :     0.016242 
   186a -> 195a  :     0.014977 
   186a -> 196a  :     0.027993 
   187a -> 190a  :     0.010535 
   187a -> 196a  :     0.013689 
   188a -> 190a  :     0.074644 
   188a -> 191a  :     0.012565 

STATE 39:  E=   0.200174 au      5.447 eV    43933.2 cm**-1 <S**2> =   0.000000
   159a -> 189a  :     0.010652 
   165a -> 189a  :     0.017463 
   166a -> 189a  :     0.016714 
   177a -> 189a  :     0.112212 
   178a -> 189a  :     0.068659 
   179a -> 189a  :     0.080581 
   180a -> 189a  :     0.016734 
   181a -> 189a  :     0.013485 
   185a -> 189a  :     0.033730 
   186a -> 189a  :     0.204835 
   186a -> 194a  :     0.012788 
   187a -> 189a  :     0.083574 
   188a -> 189a  :     0.031068 

STATE 40:  E=   0.212993 au      5.796 eV    46746.6 cm**-1 <S**2> =   0.000000
   171a -> 193a  :     0.015051 
   177a -> 189a  :     0.011713 
   178a -> 189a  :     0.010649 
   180a -> 189a  :     0.013337 
   181a -> 189a  :     0.013341 
   183a -> 189a  :     0.163332 
   183a -> 193a  :     0.011824 
   183a -> 200a  :     0.019623 
   185a -> 189a  :     0.184300 
   185a -> 192a  :     0.020399 
   185a -> 193a  :     0.036537 
   185a -> 195a  :     0.014271 
   185a -> 198a  :     0.018609 
   185a -> 199a  :     0.011993 
   185a -> 200a  :     0.039066 
   187a -> 189a  :     0.018690 
   188a -> 191a  :     0.020420 
   188a -> 192a  :     0.034672 
   188a -> 193a  :     0.056521 


-------------------------
TD-DFT-EXCITATION SPECTRA
-------------------------

Center of mass = (  0.0089, -0.0329,  0.0103)
Calculating the Dipole integrals                  ... done
Transforming integrals                            ... done
Calculating the Linear Momentum integrals         ... done
Transforming integrals                            ... done
Calculating angular momentum integrals            ... done
Transforming integrals                            ... done

-----------------------------------------------------------------------------
         ABSORPTION SPECTRUM VIA TRANSITION ELECTRIC DIPOLE MOMENTS
-----------------------------------------------------------------------------
State   Energy    Wavelength  fosc         T2        TX        TY        TZ  
        (cm-1)      (nm)                 (au**2)    (au)      (au)      (au) 
-----------------------------------------------------------------------------
   1   15542.4    643.4   0.000027120   0.00057   0.02171  -0.00306  -0.00969
   2   15968.7    626.2   0.000014413   0.00030  -0.01650  -0.00116   0.00485
   3   16663.7    600.1   0.000061981   0.00122   0.03252  -0.00280  -0.01262
   4   25157.9    397.5   0.000071982   0.00094   0.00691   0.00641  -0.02921
   5   25688.8    389.3   0.000101091   0.00130  -0.02399  -0.02634  -0.00515
   6   26770.1    373.6   0.000017227   0.00021   0.00331  -0.00888   0.01105
   7   33120.7    301.9   0.068454453   0.68042   0.38366  -0.43704  -0.58500
   8   33088.3    302.2   0.042047797   0.41835  -0.30688   0.26103   0.50601
   9   33012.0    302.9   0.000388254   0.00387   0.01341   0.05977   0.01095
  10   33343.9    299.9   0.212590465   2.09895  -0.63017   0.68229   1.11190
  11   34572.2    289.3   0.434224930   4.13489   0.82589   1.05394  -1.53036
  12   34436.6    290.4   0.714155024   6.82729  -2.19266   1.41371   0.14474
  13   37389.7    267.5   0.000751573   0.00662   0.05825  -0.05664   0.00394
  14   37436.0    267.1   0.000447827   0.00394  -0.05762  -0.01622  -0.01883
  15   37461.6    266.9   0.000037968   0.00033  -0.00196  -0.01565   0.00921
  16   37749.8    264.9   0.029505374   0.25731  -0.39391  -0.31809  -0.03113
  17   37873.9    264.0   0.051796418   0.45023   0.51932  -0.38110  -0.18788
  18   38201.2    261.8   0.026173351   0.22556  -0.47022  -0.06575   0.01120
  19   29327.9    341.0   0.024151537   0.27111  -0.22855  -0.25502   0.39222
  20   34779.5    287.5   0.004704927   0.04454   0.06071  -0.04499  -0.19704
  21   33172.7    301.5   0.053102035   0.52699   0.05893  -0.68446   0.23459
  22   36990.6    270.3   0.039076597   0.34778  -0.16662   0.52229   0.21733
  23   38630.9    258.9   0.098778201   0.84179   0.83263   0.37692   0.08027
  24   35185.3    284.2   0.022621078   0.21165   0.06399   0.12571   0.43790
  25   34120.8    293.1   0.124636297   1.20254   0.66818   0.63273  -0.59642
  26   33019.5    302.9   0.080790188   0.80550   0.48166   0.37814   0.65613
  27   36329.5    275.3   0.091293590   0.82729   0.33682  -0.81719  -0.21459
  28   33550.2    298.1   0.012879598   0.12638  -0.00713  -0.35445  -0.02633
  29   35234.0    283.8   0.031964760   0.29867  -0.49182   0.06450   0.22940
  30   38941.2    256.8   0.222835609   1.88387   0.26087   1.03976  -0.85715
  31   34820.1    287.2   0.103436498   0.97796   0.90310   0.30475  -0.26361
  32   37825.9    264.4   0.008348906   0.07266   0.19113   0.10318  -0.15965
  33   31860.9    313.9   0.032065691   0.33133  -0.34964  -0.20737  -0.40752
  34   37545.3    266.3   0.052693125   0.46203  -0.40823   0.24136  -0.48696
  35   35930.1    278.3   0.077962784   0.71434   0.21491  -0.22855  -0.78480
  36   40369.7    247.7   0.064017633   0.52206  -0.40345   0.59931  -0.01104
  37   39703.6    251.9   0.133304000   1.10532  -0.49643  -0.79745   0.47218
  38   40726.0    245.5   0.148337592   1.19910   0.89197   0.30491  -0.55724
  39   43933.2    227.6   0.014370886   0.10769   0.02171  -0.17961  -0.27378
  40   46746.6    213.9   0.049853398   0.35109  -0.40173  -0.43449   0.03040

-----------------------------------------------------------------------------
         ABSORPTION SPECTRUM VIA TRANSITION VELOCITY DIPOLE MOMENTS
-----------------------------------------------------------------------------
State   Energy    Wavelength   fosc        P2         PX        PY        PZ  
        (cm-1)      (nm)                 (au**2)     (au)      (au)      (au) 
-----------------------------------------------------------------------------
   1   15542.4    643.4   0.000065721   0.00001  -0.00147  -0.00134   0.00175
   2   15968.7    626.2   0.000021240   0.00000   0.00093  -0.00055  -0.00108
   3   16663.7    600.1   0.000018665   0.00000  -0.00021  -0.00094  -0.00109
   4   25157.9    397.5   0.000200710   0.00003  -0.00070  -0.00154   0.00563
   5   25688.8    389.3   0.000212051   0.00004   0.00387   0.00440   0.00168
   6   26770.1    373.6   0.000017292   0.00000  -0.00024   0.00038  -0.00172
   7   33120.7    301.9   0.073073722   0.01654  -0.05912   0.06736   0.09224
   8   33088.3    302.2   0.045686051   0.01033   0.04739  -0.04019  -0.08044
   9   33012.0    302.9   0.000401891   0.00009  -0.00202  -0.00917  -0.00158
  10   33343.9    299.9   0.225635320   0.05142   0.09670  -0.10560  -0.17583
  11   34572.2    289.3   0.456797934   0.10793  -0.13190  -0.17048   0.24793
  12   34436.6    290.4   0.757423743   0.17826   0.35335  -0.22941  -0.02790
  13   37389.7    267.5   0.000786093   0.00020  -0.00968   0.00936   0.00442
  14   37436.0    267.1   0.000480973   0.00012   0.01104  -0.00111  -0.00008
  15   37461.6    266.9   0.000045063   0.00001   0.00184   0.00082   0.00273
  16   37749.8    264.9   0.034040553   0.00878   0.07075   0.06092   0.00809
  17   37873.9    264.0   0.062094181   0.01607  -0.09923   0.07090   0.03465
  18   38201.2    261.8   0.029707662   0.00776   0.08729   0.01127  -0.00323
  19   29327.9    341.0   0.049513527   0.00992   0.04453   0.05182  -0.07251
  20   34779.5    287.5   0.007780601   0.00185  -0.01115   0.01070   0.04013
  21   33172.7    301.5   0.081907495   0.01857  -0.01016   0.12834  -0.04466
  22   36990.6    270.3   0.050277238   0.01271   0.03037  -0.09961  -0.04320
  23   38630.9    258.9   0.114369865   0.03020  -0.15828  -0.06939  -0.01810
  24   35185.3    284.2   0.034488955   0.00829  -0.01483  -0.02652  -0.08585
  25   34120.8    293.1   0.196042502   0.04572  -0.12794  -0.12368   0.11854
  26   33019.5    302.9   0.134916428   0.03045  -0.09370  -0.07323  -0.12769
  27   36329.5    275.3   0.126296363   0.03136  -0.06746   0.15844   0.04128
  28   33550.2    298.1   0.023347432   0.00535  -0.00137   0.07302   0.00442
  29   35234.0    283.8   0.049672539   0.01196   0.09907  -0.01245  -0.04463
  30   38941.2    256.8   0.274660499   0.07310  -0.04972  -0.20623   0.16762
  31   34820.1    287.2   0.156734650   0.03730  -0.17628  -0.05789   0.05360
  32   37825.9    264.4   0.012407015   0.00321  -0.04054  -0.02096   0.03353
  33   31860.9    313.9   0.067392241   0.01467   0.07313   0.04643   0.08468
  34   37545.3    266.3   0.079455338   0.02039   0.08471  -0.05222   0.10240
  35   35930.1    278.3   0.136220860   0.03345  -0.04357   0.04962   0.17056
  36   40369.7    247.7   0.088847225   0.02451   0.08521  -0.13133   0.00236
  37   39703.6    251.9   0.192459356   0.05222   0.10903   0.17213  -0.10348
  38   40726.0    245.5   0.203210678   0.05656  -0.19220  -0.06767   0.12265
  39   43933.2    227.6   0.019785718   0.00594  -0.00326   0.04422   0.06305
  40   46746.6    213.9   0.060733393   0.01940   0.09199   0.10454  -0.00335

-------------------------------------------------------------------
                             CD SPECTRUM
-------------------------------------------------------------------
State  Energy     Wavelength     R         MX        MY        MZ   
       (cm-1)       (nm)     (1e40*cgs)   (au)      (au)      (au)  
-------------------------------------------------------------------
   1   15542.4    643.4      8.89457   0.45734   0.38377  -1.04380
   2   15968.7    626.2     -1.70171   0.29933   1.04888   0.52509
   3   16663.7    600.1     15.58275   1.08729  -0.45775   0.28427
   4   25157.9    397.5     -1.27936   0.02877  -0.05516   0.08760
   5   25688.8    389.3     -0.91365   0.02677   0.04261   0.03371
   6   26770.1    373.6     -0.20451   0.01071   0.02665  -0.02105
   7   33120.7    301.9    -95.24268   0.14719  -0.00996   0.44931
   8   33088.3    302.2    -73.58921  -0.15593  -0.51113  -0.13937
   9   33012.0    302.9      5.57737   0.33073   0.14555  -0.11900
  10   33343.9    299.9    -179.83291  -0.35263  -0.21022  -0.41391
  11   34572.2    289.3    -1015.47946  -0.43083  -0.84752   0.59130
  12   34436.6    290.4    1331.58453  -0.75358   0.73959   0.87418
  13   37389.7    267.5    -16.69372  -0.51433   0.11394   0.25550
  14   37436.0    267.1    -15.04201   0.53844  -0.13177   0.16011
  15   37461.6    266.9      2.38784   0.03321  -0.49412  -0.28292
  16   37749.8    264.9      7.74696  -0.07209   0.05280  -0.15518
  17   37873.9    264.0     -2.04278   0.03481  -0.08253   0.28670
  18   38201.2    261.8     14.03094  -0.01886  -0.29414   0.13881
  19   29327.9    341.0     -1.22599   0.07941   0.02248   0.05426
  20   34779.5    287.5     40.95345  -0.08934   0.03145  -0.47556
  21   33172.7    301.5     24.77863   0.16834   0.00536   0.19738
  22   36990.6    270.3    -19.83732  -0.16045   0.06509  -0.47305
  23   38630.9    258.9    147.34625   0.48309  -0.23065  -0.03440
  24   35185.3    284.2    -142.54046   0.35200  -0.25570  -0.66847
  25   34120.8    293.1    -33.49688  -0.02421   0.15249   0.25377
  26   33019.5    302.9    -248.55293   0.26031  -0.41907  -0.75309
  27   36329.5    275.3     50.97176   0.17314  -0.26346   0.77123
  28   33550.2    298.1    -19.60776   0.14760   0.08980   0.33066
  29   35234.0    283.8    -49.31592   0.02314   0.39707  -0.51804
  30   38941.2    256.8    179.94913  -0.44464   0.68811   0.25408
  31   34820.1    287.2    -108.31275  -0.12016  -0.10579   0.33758
  32   37825.9    264.4      6.61790  -0.09411  -0.07164  -0.24689
  33   31860.9    313.9    -72.97097  -0.15619  -0.01576   0.52184
  34   37545.3    266.3     38.55683  -0.11336  -0.04732  -0.09637
  35   35930.1    278.3     23.04477  -0.19333   0.03190  -0.12452
  36   40369.7    247.7    -22.97072  -0.15323  -0.18380   0.03522
  37   39703.6    251.9    -63.16002  -0.09432   0.23735   0.01796
  38   40726.0    245.5    -112.92765  -0.18312  -0.12716   0.06717
  39   43933.2    227.6     46.02685   0.04783  -0.20021  -0.22145
  40   46746.6    213.9    -32.83039   0.01170   0.11294  -0.52186

-------------------------------------------------------------------
         CD SPECTRUM VIA TRANSITION VELOCITY DIPOLE MOMENTS        
-------------------------------------------------------------------
State  Energy     Wavelength     R         MX        MY        MZ   
       (cm-1)       (nm)     (1e40*cgs)   (au)      (au)      (au)  
-------------------------------------------------------------------
   1   15542.4    643.4     20.00899   0.45734   0.38377  -1.04380
   2   15968.7    626.2      5.58425   0.29933   1.04888   0.52509
   3   16663.7    600.1      0.65756   1.08729  -0.45775   0.28427
   4   25157.9    397.5     -2.29310   0.02877  -0.05516   0.08760
   5   25688.8    389.3     -1.40194   0.02677   0.04261   0.03371
   6   26770.1    373.6     -0.16940   0.01071   0.02665  -0.02105
   7   33120.7    301.9    -100.19130   0.14719  -0.00996   0.44931
   8   33088.3    302.2    -76.18675  -0.15593  -0.51113  -0.13937
   9   33012.0    302.9      5.68631   0.33073   0.14555  -0.11900
  10   33343.9    299.9    -188.91533  -0.35263  -0.21022  -0.41391
  11   34572.2    289.3    -1041.28364  -0.43083  -0.84752   0.59130
  12   34436.6    290.4    1383.17084  -0.75358   0.73959   0.87418
  13   37389.7    267.5    -19.85877  -0.51433   0.11394   0.25550
  14   37436.0    267.1    -16.79353   0.53844  -0.13177   0.16011
  15   37461.6    266.9      3.09255   0.03321  -0.49412  -0.28292
  16   37749.8    264.9      8.60637  -0.07209   0.05280  -0.15518
  17   37873.9    264.0     -1.71734   0.03481  -0.08253   0.28670
  18   38201.2    261.8     14.65154  -0.01886  -0.29414   0.13881
  19   29327.9    341.0     -2.70450   0.07941   0.02248   0.05426
  20   34779.5    287.5     52.81817  -0.08934   0.03145  -0.47556
  21   33172.7    301.5     30.68738   0.16834   0.00536   0.19738
  22   36990.6    270.3    -25.40320  -0.16045   0.06509  -0.47305
  23   38630.9    258.9    160.27488   0.48309  -0.23065  -0.03440
  24   35185.3    284.2    -173.36091   0.35200  -0.25570  -0.66847
  25   34120.8    293.1    -43.42754  -0.02421   0.15249   0.25377
  26   33019.5    302.9    -321.06930   0.26031  -0.41907  -0.75309
  27   36329.5    275.3     61.48380   0.17314  -0.26346   0.77123
  28   33550.2    298.1    -24.10377   0.14760   0.08980   0.33066
  29   35234.0    283.8    -60.12196   0.02314   0.39707  -0.51804
  30   38941.2    256.8    205.16688  -0.44464   0.68811   0.25408
  31   34820.1    287.2    -134.90915  -0.12016  -0.10579   0.33758
  32   37825.9    264.4      8.10275  -0.09411  -0.07164  -0.24689
  33   31860.9    313.9    -104.04018  -0.15619  -0.01576   0.52184
  34   37545.3    266.3     46.84927  -0.11336  -0.04732  -0.09637
  35   35930.1    278.3     32.34597  -0.19333   0.03190  -0.12452
  36   40369.7    247.7    -28.61487  -0.15323  -0.18380   0.03522
  37   39703.6    251.9    -74.82665  -0.09432   0.23735   0.01796
  38   40726.0    245.5    -132.20866  -0.18312  -0.12716   0.06717
  39   43933.2    227.6     54.10100   0.04783  -0.20021  -0.22145
  40   46746.6    213.9    -32.38152   0.01170   0.11294  -0.52186

Total run time:    12092.180 sec

           *** ORCA-CIS/TD-DFT FINISHED WITHOUT ERROR ***

Maximum memory used throughout the entire CIS-calculation: 5290.8 MB

-----------------------
CIS/TD-DFT TOTAL ENERGY
-----------------------

    E(SCF)  =  -3586.195179972 Eh
    DE(CIS) =      0.070816379 Eh (Root  1)
    ----------------------------- ---------
    E(tot)  =  -3586.124363593 Eh


-------------------------   --------------------
FINAL SINGLE POINT ENERGY     -3586.124363593252
-------------------------   --------------------


                            ***************************************
                            *     ORCA property calculations      *
                            ***************************************


  WARNING: The energy has been calculated at the MP2 level but the densities
           used in the property calculations are still SCF densities
           MP2 response densities have not been calculated 
           use %mp2 Density relaxed end
           or  %mp2 Density unrelaxed end

                                    ---------------------
                                    Active property flags
                                    ---------------------
   (+) Dipole Moment


------------------------------------------------------------------------------
                       ORCA ELECTRIC PROPERTIES CALCULATION
------------------------------------------------------------------------------

Dipole Moment Calculation                       ... on
Quadrupole Moment Calculation                   ... off
Polarizability Calculation                      ... off
GBWName                                         ... FeC_4_wB2PYLP_def2SVP.gbw
Electron density                                ... FeC_4_wB2PYLP_def2SVP.scfp
The origin for moment calculation is the CENTER OF MASS  = ( 0.008863, -0.032936  0.010296)

-------------
DIPOLE MOMENT
-------------
                                X             Y             Z
Electronic contribution:      1.34639      -4.17406       1.81761
Nuclear contribution   :     -3.36808      12.51579      -3.91256
                        -----------------------------------------
Total Dipole Moment    :     -2.02168       8.34173      -2.09495
                        -----------------------------------------
Magnitude (a.u.)       :      8.83519
Magnitude (Debye)      :     22.45726



--------------------
Rotational spectrum 
--------------------
 
Rotational constants in cm-1:     0.002342     0.001850     0.001765 
Rotational constants in MHz :    70.207339    55.448862    52.928199 

 Dipole components along the rotational axes: 
x,y,z [a.u.] :    -2.007173     8.394543     1.887706 
x,y,z [Debye]:    -5.101829    21.337232     4.798167 

 

Timings for individual modules:

Sum of individual times         ...    13432.303 sec (= 223.872 min)
GTO integral calculation        ...        2.372 sec (=   0.040 min)   0.0 %
SCF iterations                  ...      821.686 sec (=  13.695 min)   6.1 %
MP2 module                      ...      510.733 sec (=   8.512 min)   3.8 %
CIS module                      ...    12097.512 sec (= 201.625 min)  90.1 %
                             ****ORCA TERMINATED NORMALLY****
TOTAL RUN TIME: 0 days 3 hours 43 minutes 55 seconds 420 msec
