 Entering Gaussian System, Link 0=g16
 Input=/home/png4rjv/photocat/TMPC_bench/gaussian/B97D3/part1/FeC_4_B97D3_def2SVP.gjf
 Output=/home/png4rjv/photocat/TMPC_bench/gaussian/B97D3/part1/FeC_4_B97D3_def2SVP.log
 Initial command:
 /opt/software/packages/g16/l1.exe "/scratch/ligandum/png4rjv/2860143/Gau-2997487.inp" -scrdir="/scratch/ligandum/png4rjv/2860143/"
 Default is to use a total of  12 processors:
                               12 via shared-memory
                                1 via Linda
 Entering Link 1 = /opt/software/packages/g16/l1.exe PID=   2997554.
  
 Copyright (c) 1988-2021, Gaussian, Inc.  All Rights Reserved.
  
 This is part of the Gaussian(R) 16 program.  It is based on
 the Gaussian(R) 09 system (copyright 2009, Gaussian, Inc.),
 the Gaussian(R) 03 system (copyright 2003, Gaussian, Inc.),
 the Gaussian(R) 98 system (copyright 1998, Gaussian, Inc.),
 the Gaussian(R) 94 system (copyright 1995, Gaussian, Inc.),
 the Gaussian 92(TM) system (copyright 1992, Gaussian, Inc.),
 the Gaussian 90(TM) system (copyright 1990, Gaussian, Inc.),
 the Gaussian 88(TM) system (copyright 1988, Gaussian, Inc.),
 the Gaussian 86(TM) system (copyright 1986, Carnegie Mellon
 University), and the Gaussian 82(TM) system (copyright 1983,
 Carnegie Mellon University). Gaussian is a federally registered
 trademark of Gaussian, Inc.
  
 This software contains proprietary and confidential information,
 including trade secrets, belonging to Gaussian, Inc.
  
 This software is provided under written license and may be
 used, copied, transmitted, or stored only in accord with that
 written license.
  
 The following legend is applicable only to US Government
 contracts under FAR:
  
                    RESTRICTED RIGHTS LEGEND
  
 Use, reproduction and disclosure by the US Government is
 subject to restrictions as set forth in subparagraphs (a)
 and (c) of the Commercial Computer Software - Restricted
 Rights clause in FAR 52.227-19.
  
 Gaussian, Inc.
 340 Quinnipiac St., Bldg. 40, Wallingford CT 06492
  
  
 ---------------------------------------------------------------
 Warning -- This program may not be used in any manner that
 competes with the business of Gaussian, Inc. or will provide
 assistance to any competitor of Gaussian, Inc.  The licensee
 of this program is prohibited from giving any competitor of
 Gaussian, Inc. access to this program.  By using this program,
 the user acknowledges that Gaussian, Inc. is engaged in the
 business of creating and licensing software in the field of
 computational chemistry and represents and warrants to the
 licensee that it is not a competitor of Gaussian, Inc. and that
 it will not use this program in any manner prohibited above.
 ---------------------------------------------------------------
  

 Cite this work as:
 Gaussian 16, Revision C.02,
 M. J. Frisch, G. W. Trucks, H. B. Schlegel, G. E. Scuseria, 
 M. A. Robb, J. R. Cheeseman, G. Scalmani, V. Barone, 
 G. A. Petersson, H. Nakatsuji, X. Li, M. Caricato, A. V. Marenich, 
 J. Bloino, B. G. Janesko, R. Gomperts, B. Mennucci, H. P. Hratchian, 
 J. V. Ortiz, A. F. Izmaylov, J. L. Sonnenberg, D. Williams-Young, 
 F. Ding, F. Lipparini, F. Egidi, J. Goings, B. Peng, A. Petrone, 
 T. Henderson, D. Ranasinghe, V. G. Zakrzewski, J. Gao, N. Rega, 
 G. Zheng, W. Liang, M. Hada, M. Ehara, K. Toyota, R. Fukuda, 
 J. Hasegawa, M. Ishida, T. Nakajima, Y. Honda, O. Kitao, H. Nakai, 
 T. Vreven, K. Throssell, J. A. Montgomery, Jr., J. E. Peralta, 
 F. Ogliaro, M. J. Bearpark, J. J. Heyd, E. N. Brothers, K. N. Kudin, 
 V. N. Staroverov, T. A. Keith, R. Kobayashi, J. Normand, 
 K. Raghavachari, A. P. Rendell, J. C. Burant, S. S. Iyengar, 
 J. Tomasi, M. Cossi, J. M. Millam, M. Klene, C. Adamo, R. Cammi, 
 J. W. Ochterski, R. L. Martin, K. Morokuma, O. Farkas, 
 J. B. Foresman, and D. J. Fox, Gaussian, Inc., Wallingford CT, 2019.
 
 ******************************************
 Gaussian 16:  AS64L-G16RevC.02  7-Dec-2021
                18-Oct-2023 
 ******************************************
 %chk=cp.chk
 %NProcshared=16
 Will use up to   16 processors via shared memory.
 Default route: MaxDisk=500GB
 ----------------------------------------------------------------------
 #p B97D3/def2svp opt Symmetry=None int=ultrafine scrf=(SMD,solvent=Ace
 tonitrile)
 ----------------------------------------------------------------------
 1/18=20,19=15,26=6,38=1/1,3;
 2/9=110,12=2,15=3,17=6,18=5,40=1/2;
 3/5=43,7=101,11=2,25=1,30=1,70=32201,71=1,72=2,74=-59,75=-5/1,2,3;
 4//1;
 5/5=2,38=5,53=2/2;
 6/7=2,8=2,9=2,10=2,28=1/1;
 7/30=1/1,2,3,16;
 1/18=20,19=15,26=6/3(2);
 2/9=110,15=3/2;
 99//99;
 2/9=110,15=3/2;
 3/5=43,7=101,11=2,25=1,30=1,70=32205,71=1,72=2,74=-59,75=-5/1,2,3;
 4/5=5,16=3,69=1/1;
 5/5=2,38=5,53=2/2;
 7/30=1/1,2,3,16;
 1/18=20,19=15,26=6/3(-5);
 2/9=110,15=3/2;
 6/7=2,8=2,9=2,10=2,19=2,28=1/1;
 99/9=1/99;
 Leave Link    1 at Wed Oct 18 13:09:44 2023, MaxMem=           0 cpu:               0.1 elap:               0.1
 (Enter /opt/software/packages/g16/l101.exe)
 -----
 Title
 -----
 Symbolic Z-matrix:
 Charge =  2 Multiplicity = 1
 Fe                   -0.18443   1.05692  -0.14484 
 N                    -0.45142   2.99522  -0.51343 
 C                     0.48876   3.80074   0.05491 
 C                    -1.38066   3.55542  -1.2952 
 C                     0.4953    5.18331  -0.12763 
 C                    -1.43442   4.92992  -1.52114 
 H                    -2.10512   2.88586  -1.76306 
 C                    -0.48754   5.75915  -0.92642 
 H                     1.27032   5.78119   0.35372 
 H                    -2.21817   5.33258  -2.16349 
 H                    -0.51009   6.8379   -1.08791 
 C                     1.4614    3.09145   0.8473 
 H                     2.26188   3.62967   1.3685 
 N                     1.33638   1.80241   0.91334 
 C                     2.29051   1.04158   1.62714 
 C                     3.66315   1.17423   1.37216 
 C                     1.84597   0.10027   2.55566 
 C                     4.57943   0.34977   2.02358 
 H                     4.00823   1.90821   0.63949 
 C                     2.78162  -0.70471   3.19014 
 H                     0.79323   0.01225   2.81134 
 C                     4.14863  -0.60609   2.93809 
 H                     5.64353   0.44781   1.8026 
 N                    -1.32477   0.96619   1.48234 
 C                    -1.56743  -0.30234   1.92027 
 C                    -1.88841   1.98587   2.13884 
 C                    -2.4061   -0.57018   3.0018 
 C                    -2.7313    1.7915    3.23227 
 H                    -1.67212   2.99267   1.77373 
 C                    -3.00388   0.49664   3.66608 
 H                    -2.56574  -1.60473   3.30991 
 H                    -3.16669   2.65901   3.72905 
 H                    -3.66535   0.32095   4.51581 
 C                    -0.83075  -1.31854   1.20958 
 H                    -0.94169  -2.37679   1.47707 
 N                     0.00243  -0.90858   0.30273 
 C                     0.74312  -1.84157  -0.45301 
 C                     0.1628   -3.02119  -0.94521 
 C                     2.0748   -1.54683  -0.75559 
 C                     0.90956  -3.89002  -1.73903 
 H                    -0.88145  -3.24939  -0.71859 
 C                     2.79383  -2.43306  -1.54491 
 H                     2.55061  -0.64546  -0.37385 
 C                     2.23523  -3.60472  -2.05218 
 H                     0.44564  -4.79854  -2.1263 
 N                     0.83206   0.94835  -1.87323 
 C                     0.11166   0.42715  -2.90408 
 C                     2.0999    1.30326  -2.10579 
 C                     0.65934   0.21893  -4.16979 
 C                     2.71247   1.12976  -3.34629 
 H                     2.66107   1.72529  -1.26965 
 C                     1.98705   0.57062  -4.39384 
 H                     0.037    -0.21223  -4.95509 
 H                     3.75461   1.42569  -3.46974 
 H                     2.44566   0.41557  -5.3716 
 C                    -1.25176   0.10325  -2.56597 
 H                    -1.913    -0.36391  -3.30589 
 N                    -1.64886   0.39203  -1.36689 
 C                    -2.92569  -0.03282  -0.9361 
 C                    -3.29649  -1.36886  -1.1026 
 C                    -3.7879    0.85562  -0.27674 
 C                    -4.52099  -1.78829  -0.59274 
 H                    -2.63647  -2.07683  -1.60392 
 C                    -5.01495   0.4104    0.20515 
 H                    -3.49554   1.89953  -0.15311 
 C                    -5.39322  -0.92307   0.0608 
 H                    -5.68271   1.11084   0.7097 
 N                    -4.88932  -3.20264  -0.74285 
 O                    -4.06605  -3.95514  -1.24191 
 O                    -5.99574  -3.54548  -0.35891 
 N                     4.18573  -2.09597  -1.87387 
 O                     4.81966  -2.89403  -2.54485 
 O                     4.62763  -1.03328  -1.46161 
 N                     2.29398  -1.70753   4.14662 
 O                     1.0847   -1.85819   4.24595 
 O                     3.12336  -2.3382    4.78123 
 H                    -6.34132  -1.29407   0.44901 
 H                     2.83073  -4.26659  -2.68016 
 H                     4.84804  -1.26767   3.4483 
 
 ITRead=  0  0  0  0  0  0  0  0  0  0  0  0  0  0  0  0  0  0  0  0
 ITRead=  0  0  0  0  0  0  0  0  0  0  0  0  0  0  0  0  0  0  0  0
 ITRead=  0  0  0  0  0  0  0  0  0  0  0  0  0  0  0  0  0  0  0  0
 ITRead=  0  0  0  0  0  0  0  0  0  0  0  0  0  0  0  0  0  0  0
 MicOpt= -1 -1 -1 -1 -1 -1 -1 -1 -1 -1 -1 -1 -1 -1 -1 -1 -1 -1 -1 -1
 MicOpt= -1 -1 -1 -1 -1 -1 -1 -1 -1 -1 -1 -1 -1 -1 -1 -1 -1 -1 -1 -1
 MicOpt= -1 -1 -1 -1 -1 -1 -1 -1 -1 -1 -1 -1 -1 -1 -1 -1 -1 -1 -1 -1
 MicOpt= -1 -1 -1 -1 -1 -1 -1 -1 -1 -1 -1 -1 -1 -1 -1 -1 -1 -1 -1
 NAtoms=     79 NQM=       79 NQMF=       0 NMMI=      0 NMMIF=      0
                NMic=       0 NMicF=      0.
                    Isotopes and Nuclear Properties:
 (Nuclear quadrupole moments (NQMom) in fm**2, nuclear magnetic moments (NMagM)
  in nuclear magnetons)

  Atom         1           2           3           4           5           6           7           8           9          10
 IAtWgt=          56          14          12          12          12          12           1          12           1           1
 AtmWgt=  55.9349393  14.0030740  12.0000000  12.0000000  12.0000000  12.0000000   1.0078250  12.0000000   1.0078250   1.0078250
 NucSpn=           0           2           0           0           0           0           1           0           1           1
 AtZEff=  -0.0000000  -0.0000000  -0.0000000  -0.0000000  -0.0000000  -0.0000000  -0.0000000  -0.0000000  -0.0000000  -0.0000000
 NQMom=    0.0000000   2.0440000   0.0000000   0.0000000   0.0000000   0.0000000   0.0000000   0.0000000   0.0000000   0.0000000
 NMagM=    0.0000000   0.4037610   0.0000000   0.0000000   0.0000000   0.0000000   2.7928460   0.0000000   2.7928460   2.7928460
 AtZNuc=  26.0000000   7.0000000   6.0000000   6.0000000   6.0000000   6.0000000   1.0000000   6.0000000   1.0000000   1.0000000

  Atom        11          12          13          14          15          16          17          18          19          20
 IAtWgt=           1          12           1          14          12          12          12          12           1          12
 AtmWgt=   1.0078250  12.0000000   1.0078250  14.0030740  12.0000000  12.0000000  12.0000000  12.0000000   1.0078250  12.0000000
 NucSpn=           1           0           1           2           0           0           0           0           1           0
 AtZEff=  -0.0000000  -0.0000000  -0.0000000  -0.0000000  -0.0000000  -0.0000000  -0.0000000  -0.0000000  -0.0000000  -0.0000000
 NQMom=    0.0000000   0.0000000   0.0000000   2.0440000   0.0000000   0.0000000   0.0000000   0.0000000   0.0000000   0.0000000
 NMagM=    2.7928460   0.0000000   2.7928460   0.4037610   0.0000000   0.0000000   0.0000000   0.0000000   2.7928460   0.0000000
 AtZNuc=   1.0000000   6.0000000   1.0000000   7.0000000   6.0000000   6.0000000   6.0000000   6.0000000   1.0000000   6.0000000

  Atom        21          22          23          24          25          26          27          28          29          30
 IAtWgt=           1          12           1          14          12          12          12          12           1          12
 AtmWgt=   1.0078250  12.0000000   1.0078250  14.0030740  12.0000000  12.0000000  12.0000000  12.0000000   1.0078250  12.0000000
 NucSpn=           1           0           1           2           0           0           0           0           1           0
 AtZEff=  -0.0000000  -0.0000000  -0.0000000  -0.0000000  -0.0000000  -0.0000000  -0.0000000  -0.0000000  -0.0000000  -0.0000000
 NQMom=    0.0000000   0.0000000   0.0000000   2.0440000   0.0000000   0.0000000   0.0000000   0.0000000   0.0000000   0.0000000
 NMagM=    2.7928460   0.0000000   2.7928460   0.4037610   0.0000000   0.0000000   0.0000000   0.0000000   2.7928460   0.0000000
 AtZNuc=   1.0000000   6.0000000   1.0000000   7.0000000   6.0000000   6.0000000   6.0000000   6.0000000   1.0000000   6.0000000

  Atom        31          32          33          34          35          36          37          38          39          40
 IAtWgt=           1           1           1          12           1          14          12          12          12          12
 AtmWgt=   1.0078250   1.0078250   1.0078250  12.0000000   1.0078250  14.0030740  12.0000000  12.0000000  12.0000000  12.0000000
 NucSpn=           1           1           1           0           1           2           0           0           0           0
 AtZEff=  -0.0000000  -0.0000000  -0.0000000  -0.0000000  -0.0000000  -0.0000000  -0.0000000  -0.0000000  -0.0000000  -0.0000000
 NQMom=    0.0000000   0.0000000   0.0000000   0.0000000   0.0000000   2.0440000   0.0000000   0.0000000   0.0000000   0.0000000
 NMagM=    2.7928460   2.7928460   2.7928460   0.0000000   2.7928460   0.4037610   0.0000000   0.0000000   0.0000000   0.0000000
 AtZNuc=   1.0000000   1.0000000   1.0000000   6.0000000   1.0000000   7.0000000   6.0000000   6.0000000   6.0000000   6.0000000

  Atom        41          42          43          44          45          46          47          48          49          50
 IAtWgt=           1          12           1          12           1          14          12          12          12          12
 AtmWgt=   1.0078250  12.0000000   1.0078250  12.0000000   1.0078250  14.0030740  12.0000000  12.0000000  12.0000000  12.0000000
 NucSpn=           1           0           1           0           1           2           0           0           0           0
 AtZEff=  -0.0000000  -0.0000000  -0.0000000  -0.0000000  -0.0000000  -0.0000000  -0.0000000  -0.0000000  -0.0000000  -0.0000000
 NQMom=    0.0000000   0.0000000   0.0000000   0.0000000   0.0000000   2.0440000   0.0000000   0.0000000   0.0000000   0.0000000
 NMagM=    2.7928460   0.0000000   2.7928460   0.0000000   2.7928460   0.4037610   0.0000000   0.0000000   0.0000000   0.0000000
 AtZNuc=   1.0000000   6.0000000   1.0000000   6.0000000   1.0000000   7.0000000   6.0000000   6.0000000   6.0000000   6.0000000

  Atom        51          52          53          54          55          56          57          58          59          60
 IAtWgt=           1          12           1           1           1          12           1          14          12          12
 AtmWgt=   1.0078250  12.0000000   1.0078250   1.0078250   1.0078250  12.0000000   1.0078250  14.0030740  12.0000000  12.0000000
 NucSpn=           1           0           1           1           1           0           1           2           0           0
 AtZEff=  -0.0000000  -0.0000000  -0.0000000  -0.0000000  -0.0000000  -0.0000000  -0.0000000  -0.0000000  -0.0000000  -0.0000000
 NQMom=    0.0000000   0.0000000   0.0000000   0.0000000   0.0000000   0.0000000   0.0000000   2.0440000   0.0000000   0.0000000
 NMagM=    2.7928460   0.0000000   2.7928460   2.7928460   2.7928460   0.0000000   2.7928460   0.4037610   0.0000000   0.0000000
 AtZNuc=   1.0000000   6.0000000   1.0000000   1.0000000   1.0000000   6.0000000   1.0000000   7.0000000   6.0000000   6.0000000

  Atom        61          62          63          64          65          66          67          68          69          70
 IAtWgt=          12          12           1          12           1          12           1          14          16          16
 AtmWgt=  12.0000000  12.0000000   1.0078250  12.0000000   1.0078250  12.0000000   1.0078250  14.0030740  15.9949146  15.9949146
 NucSpn=           0           0           1           0           1           0           1           2           0           0
 AtZEff=  -0.0000000  -0.0000000  -0.0000000  -0.0000000  -0.0000000  -0.0000000  -0.0000000  -0.0000000  -0.0000000  -0.0000000
 NQMom=    0.0000000   0.0000000   0.0000000   0.0000000   0.0000000   0.0000000   0.0000000   2.0440000   0.0000000   0.0000000
 NMagM=    0.0000000   0.0000000   2.7928460   0.0000000   2.7928460   0.0000000   2.7928460   0.4037610   0.0000000   0.0000000
 AtZNuc=   6.0000000   6.0000000   1.0000000   6.0000000   1.0000000   6.0000000   1.0000000   7.0000000   8.0000000   8.0000000

  Atom        71          72          73          74          75          76          77          78          79
 IAtWgt=          14          16          16          14          16          16           1           1           1
 AtmWgt=  14.0030740  15.9949146  15.9949146  14.0030740  15.9949146  15.9949146   1.0078250   1.0078250   1.0078250
 NucSpn=           2           0           0           2           0           0           1           1           1
 AtZEff=  -0.0000000  -0.0000000  -0.0000000  -0.0000000  -0.0000000  -0.0000000  -0.0000000  -0.0000000  -0.0000000
 NQMom=    2.0440000   0.0000000   0.0000000   2.0440000   0.0000000   0.0000000   0.0000000   0.0000000   0.0000000
 NMagM=    0.4037610   0.0000000   0.0000000   0.4037610   0.0000000   0.0000000   2.7928460   2.7928460   2.7928460
 AtZNuc=   7.0000000   8.0000000   8.0000000   7.0000000   8.0000000   8.0000000   1.0000000   1.0000000   1.0000000
 Leave Link  101 at Wed Oct 18 13:09:45 2023, MaxMem=  2831155200 cpu:               0.2 elap:               0.2
 (Enter /opt/software/packages/g16/l103.exe)

 GradGradGradGradGradGradGradGradGradGradGradGradGradGradGradGradGradGrad
 Berny optimization.
 Initialization pass.
                           ----------------------------
                           !    Initial Parameters    !
                           ! (Angstroms and Degrees)  !
 --------------------------                            --------------------------
 ! Name  Definition              Value          Derivative Info.                !
 --------------------------------------------------------------------------------
 ! R1    R(1,2)                  1.991          estimate D2E/DX2                !
 ! R2    R(1,14)                 1.9971         estimate D2E/DX2                !
 ! R3    R(1,24)                 1.989          estimate D2E/DX2                !
 ! R4    R(1,36)                 2.0245         estimate D2E/DX2                !
 ! R5    R(1,46)                 2.0081         estimate D2E/DX2                !
 ! R6    R(1,58)                 2.0199         estimate D2E/DX2                !
 ! R7    R(2,3)                  1.3623         estimate D2E/DX2                !
 ! R8    R(2,4)                  1.3373         estimate D2E/DX2                !
 ! R9    R(3,5)                  1.3946         estimate D2E/DX2                !
 ! R10   R(3,12)                 1.4412         estimate D2E/DX2                !
 ! R11   R(4,6)                  1.394          estimate D2E/DX2                !
 ! R12   R(4,7)                  1.0918         estimate D2E/DX2                !
 ! R13   R(5,8)                  1.3913         estimate D2E/DX2                !
 ! R14   R(5,9)                  1.0908         estimate D2E/DX2                !
 ! R15   R(6,8)                  1.3921         estimate D2E/DX2                !
 ! R16   R(6,10)                 1.0904         estimate D2E/DX2                !
 ! R17   R(8,11)                 1.091          estimate D2E/DX2                !
 ! R18   R(12,13)                1.0964         estimate D2E/DX2                !
 ! R19   R(12,14)                1.2968         estimate D2E/DX2                !
 ! R20   R(14,15)                1.4138         estimate D2E/DX2                !
 ! R21   R(15,16)                1.4024         estimate D2E/DX2                !
 ! R22   R(15,17)                1.3949         estimate D2E/DX2                !
 ! R23   R(16,18)                1.3941         estimate D2E/DX2                !
 ! R24   R(16,19)                1.093          estimate D2E/DX2                !
 ! R25   R(17,20)                1.3878         estimate D2E/DX2                !
 ! R26   R(17,21)                1.0869         estimate D2E/DX2                !
 ! R27   R(18,22)                1.3912         estimate D2E/DX2                !
 ! R28   R(18,23)                1.0912         estimate D2E/DX2                !
 ! R29   R(20,22)                1.3935         estimate D2E/DX2                !
 ! R30   R(20,74)                1.4691         estimate D2E/DX2                !
 ! R31   R(22,79)                1.0896         estimate D2E/DX2                !
 ! R32   R(24,25)                1.3638         estimate D2E/DX2                !
 ! R33   R(24,26)                1.3373         estimate D2E/DX2                !
 ! R34   R(25,27)                1.3946         estimate D2E/DX2                !
 ! R35   R(25,34)                1.4424         estimate D2E/DX2                !
 ! R36   R(26,28)                1.3942         estimate D2E/DX2                !
 ! R37   R(26,29)                1.0926         estimate D2E/DX2                !
 ! R38   R(27,30)                1.3917         estimate D2E/DX2                !
 ! R39   R(27,31)                1.0912         estimate D2E/DX2                !
 ! R40   R(28,30)                1.3925         estimate D2E/DX2                !
 ! R41   R(28,32)                1.0904         estimate D2E/DX2                !
 ! R42   R(30,33)                1.0911         estimate D2E/DX2                !
 ! R43   R(34,35)                1.0972         estimate D2E/DX2                !
 ! R44   R(34,36)                1.2979         estimate D2E/DX2                !
 ! R45   R(36,37)                1.4108         estimate D2E/DX2                !
 ! R46   R(37,38)                1.4038         estimate D2E/DX2                !
 ! R47   R(37,39)                1.3971         estimate D2E/DX2                !
 ! R48   R(38,40)                1.3938         estimate D2E/DX2                !
 ! R49   R(38,41)                1.0926         estimate D2E/DX2                !
 ! R50   R(39,42)                1.3876         estimate D2E/DX2                !
 ! R51   R(39,43)                1.0884         estimate D2E/DX2                !
 ! R52   R(40,44)                1.3917         estimate D2E/DX2                !
 ! R53   R(40,45)                1.0911         estimate D2E/DX2                !
 ! R54   R(42,44)                1.3936         estimate D2E/DX2                !
 ! R55   R(42,71)                1.4694         estimate D2E/DX2                !
 ! R56   R(44,78)                1.0895         estimate D2E/DX2                !
 ! R57   R(46,47)                1.3613         estimate D2E/DX2                !
 ! R58   R(46,48)                1.337          estimate D2E/DX2                !
 ! R59   R(47,49)                1.3948         estimate D2E/DX2                !
 ! R60   R(47,56)                1.4416         estimate D2E/DX2                !
 ! R61   R(48,50)                1.3943         estimate D2E/DX2                !
 ! R62   R(48,51)                1.0919         estimate D2E/DX2                !
 ! R63   R(49,52)                1.3917         estimate D2E/DX2                !
 ! R64   R(49,53)                1.0908         estimate D2E/DX2                !
 ! R65   R(50,52)                1.3915         estimate D2E/DX2                !
 ! R66   R(50,54)                1.0904         estimate D2E/DX2                !
 ! R67   R(52,55)                1.091          estimate D2E/DX2                !
 ! R68   R(56,57)                1.0968         estimate D2E/DX2                !
 ! R69   R(56,58)                1.2957         estimate D2E/DX2                !
 ! R70   R(58,59)                1.4129         estimate D2E/DX2                !
 ! R71   R(59,60)                1.3965         estimate D2E/DX2                !
 ! R72   R(59,61)                1.4027         estimate D2E/DX2                !
 ! R73   R(60,62)                1.3911         estimate D2E/DX2                !
 ! R74   R(60,63)                1.09           estimate D2E/DX2                !
 ! R75   R(61,64)                1.3914         estimate D2E/DX2                !
 ! R76   R(61,65)                1.0911         estimate D2E/DX2                !
 ! R77   R(62,66)                1.3916         estimate D2E/DX2                !
 ! R78   R(62,68)                1.4692         estimate D2E/DX2                !
 ! R79   R(64,66)                1.3936         estimate D2E/DX2                !
 ! R80   R(64,67)                1.0914         estimate D2E/DX2                !
 ! R81   R(66,77)                1.0896         estimate D2E/DX2                !
 ! R82   R(68,69)                1.2219         estimate D2E/DX2                !
 ! R83   R(68,70)                1.2203         estimate D2E/DX2                !
 ! R84   R(71,72)                1.2202         estimate D2E/DX2                !
 ! R85   R(71,73)                1.2225         estimate D2E/DX2                !
 ! R86   R(74,75)                1.2227         estimate D2E/DX2                !
 ! R87   R(74,76)                1.22           estimate D2E/DX2                !
 ! A1    A(2,1,14)              80.6074         estimate D2E/DX2                !
 ! A2    A(2,1,24)              96.8332         estimate D2E/DX2                !
 ! A3    A(2,1,46)              87.7746         estimate D2E/DX2                !
 ! A4    A(2,1,58)              96.3862         estimate D2E/DX2                !
 ! A5    A(14,1,24)             91.1546         estimate D2E/DX2                !
 ! A6    A(14,1,36)            100.0781         estimate D2E/DX2                !
 ! A7    A(14,1,46)             95.2073         estimate D2E/DX2                !
 ! A8    A(24,1,36)             80.0826         estimate D2E/DX2                !
 ! A9    A(24,1,58)             93.6854         estimate D2E/DX2                !
 ! A10   A(36,1,46)             95.2253         estimate D2E/DX2                !
 ! A11   A(36,1,58)             83.1708         estimate D2E/DX2                !
 ! A12   A(46,1,58)             80.1224         estimate D2E/DX2                !
 ! A13   A(1,2,3)              113.9456         estimate D2E/DX2                !
 ! A14   A(1,2,4)              127.5312         estimate D2E/DX2                !
 ! A15   A(3,2,4)              118.4072         estimate D2E/DX2                !
 ! A16   A(2,3,5)              122.3332         estimate D2E/DX2                !
 ! A17   A(2,3,12)             113.8372         estimate D2E/DX2                !
 ! A18   A(5,3,12)             123.8294         estimate D2E/DX2                !
 ! A19   A(2,4,6)              122.3155         estimate D2E/DX2                !
 ! A20   A(2,4,7)              117.0439         estimate D2E/DX2                !
 ! A21   A(6,4,7)              120.6397         estimate D2E/DX2                !
 ! A22   A(3,5,8)              118.827          estimate D2E/DX2                !
 ! A23   A(3,5,9)              119.273          estimate D2E/DX2                !
 ! A24   A(8,5,9)              121.8994         estimate D2E/DX2                !
 ! A25   A(4,6,8)              119.4638         estimate D2E/DX2                !
 ! A26   A(4,6,10)             119.1639         estimate D2E/DX2                !
 ! A27   A(8,6,10)             121.3721         estimate D2E/DX2                !
 ! A28   A(5,8,6)              118.636          estimate D2E/DX2                !
 ! A29   A(5,8,11)             120.5861         estimate D2E/DX2                !
 ! A30   A(6,8,11)             120.7765         estimate D2E/DX2                !
 ! A31   A(3,12,13)            120.8307         estimate D2E/DX2                !
 ! A32   A(3,12,14)            116.8823         estimate D2E/DX2                !
 ! A33   A(13,12,14)           122.2864         estimate D2E/DX2                !
 ! A34   A(1,14,12)            114.6768         estimate D2E/DX2                !
 ! A35   A(1,14,15)            125.4904         estimate D2E/DX2                !
 ! A36   A(12,14,15)           119.7091         estimate D2E/DX2                !
 ! A37   A(14,15,16)           121.1884         estimate D2E/DX2                !
 ! A38   A(14,15,17)           118.9575         estimate D2E/DX2                !
 ! A39   A(16,15,17)           119.7865         estimate D2E/DX2                !
 ! A40   A(15,16,18)           120.1581         estimate D2E/DX2                !
 ! A41   A(15,16,19)           119.6314         estimate D2E/DX2                !
 ! A42   A(18,16,19)           120.1885         estimate D2E/DX2                !
 ! A43   A(15,17,20)           118.7429         estimate D2E/DX2                !
 ! A44   A(15,17,21)           121.3248         estimate D2E/DX2                !
 ! A45   A(20,17,21)           119.8996         estimate D2E/DX2                !
 ! A46   A(16,18,22)           120.6594         estimate D2E/DX2                !
 ! A47   A(16,18,23)           119.547          estimate D2E/DX2                !
 ! A48   A(22,18,23)           119.7886         estimate D2E/DX2                !
 ! A49   A(17,20,22)           122.5211         estimate D2E/DX2                !
 ! A50   A(17,20,74)           118.0216         estimate D2E/DX2                !
 ! A51   A(22,20,74)           119.451          estimate D2E/DX2                !
 ! A52   A(18,22,20)           118.1169         estimate D2E/DX2                !
 ! A53   A(18,22,79)           121.7496         estimate D2E/DX2                !
 ! A54   A(20,22,79)           120.1333         estimate D2E/DX2                !
 ! A55   A(1,24,25)            114.0256         estimate D2E/DX2                !
 ! A56   A(1,24,26)            127.477          estimate D2E/DX2                !
 ! A57   A(25,24,26)           118.4637         estimate D2E/DX2                !
 ! A58   A(24,25,27)           122.3233         estimate D2E/DX2                !
 ! A59   A(24,25,34)           113.9682         estimate D2E/DX2                !
 ! A60   A(27,25,34)           123.6396         estimate D2E/DX2                !
 ! A61   A(24,26,28)           122.2426         estimate D2E/DX2                !
 ! A62   A(24,26,29)           117.0733         estimate D2E/DX2                !
 ! A63   A(28,26,29)           120.6791         estimate D2E/DX2                !
 ! A64   A(25,27,30)           118.7689         estimate D2E/DX2                !
 ! A65   A(25,27,31)           119.2779         estimate D2E/DX2                !
 ! A66   A(30,27,31)           121.9494         estimate D2E/DX2                !
 ! A67   A(26,28,30)           119.4911         estimate D2E/DX2                !
 ! A68   A(26,28,32)           119.1962         estimate D2E/DX2                !
 ! A69   A(30,28,32)           121.3124         estimate D2E/DX2                !
 ! A70   A(27,30,28)           118.6876         estimate D2E/DX2                !
 ! A71   A(27,30,33)           120.5784         estimate D2E/DX2                !
 ! A72   A(28,30,33)           120.7315         estimate D2E/DX2                !
 ! A73   A(25,34,35)           120.5156         estimate D2E/DX2                !
 ! A74   A(25,34,36)           116.7174         estimate D2E/DX2                !
 ! A75   A(35,34,36)           122.6775         estimate D2E/DX2                !
 ! A76   A(1,36,34)            113.6953         estimate D2E/DX2                !
 ! A77   A(1,36,37)            124.8975         estimate D2E/DX2                !
 ! A78   A(34,36,37)           120.1609         estimate D2E/DX2                !
 ! A79   A(36,37,38)           121.7706         estimate D2E/DX2                !
 ! A80   A(36,37,39)           118.4869         estimate D2E/DX2                !
 ! A81   A(38,37,39)           119.6965         estimate D2E/DX2                !
 ! A82   A(37,38,40)           120.1345         estimate D2E/DX2                !
 ! A83   A(37,38,41)           119.8597         estimate D2E/DX2                !
 ! A84   A(40,38,41)           119.998          estimate D2E/DX2                !
 ! A85   A(37,39,42)           118.8412         estimate D2E/DX2                !
 ! A86   A(37,39,43)           121.0286         estimate D2E/DX2                !
 ! A87   A(42,39,43)           120.1269         estimate D2E/DX2                !
 ! A88   A(38,40,44)           120.7109         estimate D2E/DX2                !
 ! A89   A(38,40,45)           119.5623         estimate D2E/DX2                !
 ! A90   A(44,40,45)           119.7243         estimate D2E/DX2                !
 ! A91   A(39,42,44)           122.4331         estimate D2E/DX2                !
 ! A92   A(39,42,71)           118.1429         estimate D2E/DX2                !
 ! A93   A(44,42,71)           119.4102         estimate D2E/DX2                !
 ! A94   A(40,44,42)           118.1813         estimate D2E/DX2                !
 ! A95   A(40,44,78)           121.7213         estimate D2E/DX2                !
 ! A96   A(42,44,78)           120.0964         estimate D2E/DX2                !
 ! A97   A(1,46,47)            113.8651         estimate D2E/DX2                !
 ! A98   A(1,46,48)            127.9809         estimate D2E/DX2                !
 ! A99   A(47,46,48)           118.1472         estimate D2E/DX2                !
 ! A100  A(46,47,49)           122.4473         estimate D2E/DX2                !
 ! A101  A(46,47,56)           114.1366         estimate D2E/DX2                !
 ! A102  A(49,47,56)           123.414          estimate D2E/DX2                !
 ! A103  A(46,48,50)           122.5709         estimate D2E/DX2                !
 ! A104  A(46,48,51)           117.1798         estimate D2E/DX2                !
 ! A105  A(50,48,51)           120.2385         estimate D2E/DX2                !
 ! A106  A(47,49,52)           118.8816         estimate D2E/DX2                !
 ! A107  A(47,49,53)           119.2275         estimate D2E/DX2                !
 ! A108  A(52,49,53)           121.8908         estimate D2E/DX2                !
 ! A109  A(48,50,52)           119.3887         estimate D2E/DX2                !
 ! A110  A(48,50,54)           119.1349         estimate D2E/DX2                !
 ! A111  A(52,50,54)           121.4727         estimate D2E/DX2                !
 ! A112  A(49,52,50)           118.5367         estimate D2E/DX2                !
 ! A113  A(49,52,55)           120.623          estimate D2E/DX2                !
 ! A114  A(50,52,55)           120.8395         estimate D2E/DX2                !
 ! A115  A(47,56,57)           120.5091         estimate D2E/DX2                !
 ! A116  A(47,56,58)           117.1827         estimate D2E/DX2                !
 ! A117  A(57,56,58)           122.3078         estimate D2E/DX2                !
 ! A118  A(1,58,56)            114.2712         estimate D2E/DX2                !
 ! A119  A(1,58,59)            124.7275         estimate D2E/DX2                !
 ! A120  A(56,58,59)           119.478          estimate D2E/DX2                !
 ! A121  A(58,59,60)           119.4232         estimate D2E/DX2                !
 ! A122  A(58,59,61)           120.5541         estimate D2E/DX2                !
 ! A123  A(60,59,61)           119.921          estimate D2E/DX2                !
 ! A124  A(59,60,62)           118.5847         estimate D2E/DX2                !
 ! A125  A(59,60,63)           121.0267         estimate D2E/DX2                !
 ! A126  A(62,60,63)           120.3787         estimate D2E/DX2                !
 ! A127  A(59,61,64)           120.1458         estimate D2E/DX2                !
 ! A128  A(59,61,65)           119.6401         estimate D2E/DX2                !
 ! A129  A(64,61,65)           120.2111         estimate D2E/DX2                !
 ! A130  A(60,62,66)           122.4371         estimate D2E/DX2                !
 ! A131  A(60,62,68)           118.2593         estimate D2E/DX2                !
 ! A132  A(66,62,68)           119.3            estimate D2E/DX2                !
 ! A133  A(61,64,66)           120.6417         estimate D2E/DX2                !
 ! A134  A(61,64,67)           119.6246         estimate D2E/DX2                !
 ! A135  A(66,64,67)           119.7309         estimate D2E/DX2                !
 ! A136  A(62,66,64)           118.2583         estimate D2E/DX2                !
 ! A137  A(62,66,77)           120.0668         estimate D2E/DX2                !
 ! A138  A(64,66,77)           121.6741         estimate D2E/DX2                !
 ! A139  A(62,68,69)           117.7527         estimate D2E/DX2                !
 ! A140  A(62,68,70)           117.75           estimate D2E/DX2                !
 ! A141  A(69,68,70)           124.4972         estimate D2E/DX2                !
 ! A142  A(42,71,72)           117.7212         estimate D2E/DX2                !
 ! A143  A(42,71,73)           117.7954         estimate D2E/DX2                !
 ! A144  A(72,71,73)           124.4827         estimate D2E/DX2                !
 ! A145  A(20,74,75)           117.7297         estimate D2E/DX2                !
 ! A146  A(20,74,76)           117.7676         estimate D2E/DX2                !
 ! A147  A(75,74,76)           124.5011         estimate D2E/DX2                !
 ! A148  L(2,1,36,14,-1)       180.6855         estimate D2E/DX2                !
 ! A149  L(14,1,58,2,-1)       176.9936         estimate D2E/DX2                !
 ! A150  L(24,1,46,2,-1)       184.6078         estimate D2E/DX2                !
 ! A151  L(2,1,36,14,-2)       176.8674         estimate D2E/DX2                !
 ! A152  L(14,1,58,2,-2)       175.4517         estimate D2E/DX2                !
 ! A153  L(24,1,46,2,-2)       185.6952         estimate D2E/DX2                !
 ! D1    D(14,1,2,3)             2.0446         estimate D2E/DX2                !
 ! D2    D(14,1,2,4)           178.0293         estimate D2E/DX2                !
 ! D3    D(24,1,2,3)            92.0875         estimate D2E/DX2                !
 ! D4    D(24,1,2,4)           -91.9278         estimate D2E/DX2                !
 ! D5    D(46,1,2,3)           -93.6076         estimate D2E/DX2                !
 ! D6    D(46,1,2,4)            82.3771         estimate D2E/DX2                !
 ! D7    D(58,1,2,3)          -173.4071         estimate D2E/DX2                !
 ! D8    D(58,1,2,4)             2.5776         estimate D2E/DX2                !
 ! D9    D(2,1,14,12)           -1.7377         estimate D2E/DX2                !
 ! D10   D(2,1,14,15)         -177.6591         estimate D2E/DX2                !
 ! D11   D(24,1,14,12)         -98.4732         estimate D2E/DX2                !
 ! D12   D(24,1,14,15)          85.6054         estimate D2E/DX2                !
 ! D13   D(36,1,14,12)        -178.6051         estimate D2E/DX2                !
 ! D14   D(36,1,14,15)           5.4735         estimate D2E/DX2                !
 ! D15   D(46,1,14,12)          85.1326         estimate D2E/DX2                !
 ! D16   D(46,1,14,15)         -90.7888         estimate D2E/DX2                !
 ! D17   D(2,1,24,25)          169.852          estimate D2E/DX2                !
 ! D18   D(2,1,24,26)           -7.9846         estimate D2E/DX2                !
 ! D19   D(14,1,24,25)        -109.4701         estimate D2E/DX2                !
 ! D20   D(14,1,24,26)          72.6933         estimate D2E/DX2                !
 ! D21   D(36,1,24,25)          -9.4405         estimate D2E/DX2                !
 ! D22   D(36,1,24,26)         172.7229         estimate D2E/DX2                !
 ! D23   D(58,1,24,25)          72.9613         estimate D2E/DX2                !
 ! D24   D(58,1,24,26)        -104.8753         estimate D2E/DX2                !
 ! D25   D(14,1,36,34)         100.6237         estimate D2E/DX2                !
 ! D26   D(14,1,36,37)         -92.1843         estimate D2E/DX2                !
 ! D27   D(24,1,36,34)          11.2138         estimate D2E/DX2                !
 ! D28   D(24,1,36,37)         178.4058         estimate D2E/DX2                !
 ! D29   D(46,1,36,34)        -163.1289         estimate D2E/DX2                !
 ! D30   D(46,1,36,37)           4.0631         estimate D2E/DX2                !
 ! D31   D(58,1,36,34)         -83.7576         estimate D2E/DX2                !
 ! D32   D(58,1,36,37)          83.4344         estimate D2E/DX2                !
 ! D33   D(2,1,46,47)         -101.1868         estimate D2E/DX2                !
 ! D34   D(2,1,46,48)           79.7927         estimate D2E/DX2                !
 ! D35   D(14,1,46,47)         178.4581         estimate D2E/DX2                !
 ! D36   D(14,1,46,48)          -0.5625         estimate D2E/DX2                !
 ! D37   D(36,1,46,47)          77.8096         estimate D2E/DX2                !
 ! D38   D(36,1,46,48)        -101.211          estimate D2E/DX2                !
 ! D39   D(58,1,46,47)          -4.3088         estimate D2E/DX2                !
 ! D40   D(58,1,46,48)         176.6706         estimate D2E/DX2                !
 ! D41   D(2,1,58,56)           92.5955         estimate D2E/DX2                !
 ! D42   D(2,1,58,59)         -101.628          estimate D2E/DX2                !
 ! D43   D(24,1,58,56)        -170.0979         estimate D2E/DX2                !
 ! D44   D(24,1,58,59)          -4.3214         estimate D2E/DX2                !
 ! D45   D(36,1,58,56)         -90.5569         estimate D2E/DX2                !
 ! D46   D(36,1,58,59)          75.2196         estimate D2E/DX2                !
 ! D47   D(46,1,58,56)           5.9865         estimate D2E/DX2                !
 ! D48   D(46,1,58,59)         171.763          estimate D2E/DX2                !
 ! D49   D(1,2,3,5)            177.8079         estimate D2E/DX2                !
 ! D50   D(1,2,3,12)            -2.034          estimate D2E/DX2                !
 ! D51   D(4,2,3,5)              1.4275         estimate D2E/DX2                !
 ! D52   D(4,2,3,12)          -178.4144         estimate D2E/DX2                !
 ! D53   D(1,2,4,6)           -177.2603         estimate D2E/DX2                !
 ! D54   D(1,2,4,7)              2.3971         estimate D2E/DX2                !
 ! D55   D(3,2,4,6)             -1.4327         estimate D2E/DX2                !
 ! D56   D(3,2,4,7)            178.2248         estimate D2E/DX2                !
 ! D57   D(2,3,5,8)             -0.4784         estimate D2E/DX2                !
 ! D58   D(2,3,5,9)            179.811          estimate D2E/DX2                !
 ! D59   D(12,3,5,8)           179.3475         estimate D2E/DX2                !
 ! D60   D(12,3,5,9)            -0.3631         estimate D2E/DX2                !
 ! D61   D(2,3,12,13)         -179.1277         estimate D2E/DX2                !
 ! D62   D(2,3,12,14)            0.6006         estimate D2E/DX2                !
 ! D63   D(5,3,12,13)            1.0331         estimate D2E/DX2                !
 ! D64   D(5,3,12,14)         -179.2386         estimate D2E/DX2                !
 ! D65   D(2,4,6,8)              0.5003         estimate D2E/DX2                !
 ! D66   D(2,4,6,10)          -179.6374         estimate D2E/DX2                !
 ! D67   D(7,4,6,8)           -179.1451         estimate D2E/DX2                !
 ! D68   D(7,4,6,10)             0.7172         estimate D2E/DX2                !
 ! D69   D(3,5,8,6)             -0.4769         estimate D2E/DX2                !
 ! D70   D(3,5,8,11)           179.9409         estimate D2E/DX2                !
 ! D71   D(9,5,8,6)            179.2258         estimate D2E/DX2                !
 ! D72   D(9,5,8,11)            -0.3565         estimate D2E/DX2                !
 ! D73   D(4,6,8,5)              0.4753         estimate D2E/DX2                !
 ! D74   D(4,6,8,11)          -179.9433         estimate D2E/DX2                !
 ! D75   D(10,6,8,5)          -179.3839         estimate D2E/DX2                !
 ! D76   D(10,6,8,11)            0.1976         estimate D2E/DX2                !
 ! D77   D(3,12,14,1)            1.1388         estimate D2E/DX2                !
 ! D78   D(3,12,14,15)         177.3158         estimate D2E/DX2                !
 ! D79   D(13,12,14,1)        -179.1372         estimate D2E/DX2                !
 ! D80   D(13,12,14,15)         -2.9602         estimate D2E/DX2                !
 ! D81   D(1,14,15,16)         123.4242         estimate D2E/DX2                !
 ! D82   D(1,14,15,17)         -53.5785         estimate D2E/DX2                !
 ! D83   D(12,14,15,16)        -52.3084         estimate D2E/DX2                !
 ! D84   D(12,14,15,17)        130.6888         estimate D2E/DX2                !
 ! D85   D(14,15,16,18)       -175.6626         estimate D2E/DX2                !
 ! D86   D(14,15,16,19)          2.6359         estimate D2E/DX2                !
 ! D87   D(17,15,16,18)          1.3156         estimate D2E/DX2                !
 ! D88   D(17,15,16,19)        179.6141         estimate D2E/DX2                !
 ! D89   D(14,15,17,20)        175.8533         estimate D2E/DX2                !
 ! D90   D(14,15,17,21)         -6.2298         estimate D2E/DX2                !
 ! D91   D(16,15,17,20)         -1.1924         estimate D2E/DX2                !
 ! D92   D(16,15,17,21)        176.7246         estimate D2E/DX2                !
 ! D93   D(15,16,18,22)         -0.4172         estimate D2E/DX2                !
 ! D94   D(15,16,18,23)        178.764          estimate D2E/DX2                !
 ! D95   D(19,16,18,22)       -178.7062         estimate D2E/DX2                !
 ! D96   D(19,16,18,23)          0.475          estimate D2E/DX2                !
 ! D97   D(15,17,20,22)          0.1901         estimate D2E/DX2                !
 ! D98   D(15,17,20,74)       -178.8906         estimate D2E/DX2                !
 ! D99   D(21,17,20,22)       -177.7573         estimate D2E/DX2                !
 ! D100  D(21,17,20,74)          3.162          estimate D2E/DX2                !
 ! D101  D(16,18,22,20)         -0.5716         estimate D2E/DX2                !
 ! D102  D(16,18,22,79)        179.2545         estimate D2E/DX2                !
 ! D103  D(23,18,22,20)       -179.7509         estimate D2E/DX2                !
 ! D104  D(23,18,22,79)          0.0753         estimate D2E/DX2                !
 ! D105  D(17,20,22,18)          0.6931         estimate D2E/DX2                !
 ! D106  D(17,20,22,79)       -179.1359         estimate D2E/DX2                !
 ! D107  D(74,20,22,18)        179.7612         estimate D2E/DX2                !
 ! D108  D(74,20,22,79)         -0.0679         estimate D2E/DX2                !
 ! D109  D(17,20,74,75)          6.2158         estimate D2E/DX2                !
 ! D110  D(17,20,74,76)       -174.2132         estimate D2E/DX2                !
 ! D111  D(22,20,74,75)       -172.894          estimate D2E/DX2                !
 ! D112  D(22,20,74,76)          6.6769         estimate D2E/DX2                !
 ! D113  D(1,24,25,27)        -176.3651         estimate D2E/DX2                !
 ! D114  D(1,24,25,34)           6.5541         estimate D2E/DX2                !
 ! D115  D(26,24,25,27)          1.682          estimate D2E/DX2                !
 ! D116  D(26,24,25,34)       -175.3988         estimate D2E/DX2                !
 ! D117  D(1,24,26,28)         176.4497         estimate D2E/DX2                !
 ! D118  D(1,24,26,29)          -2.7411         estimate D2E/DX2                !
 ! D119  D(25,24,26,28)         -1.3026         estimate D2E/DX2                !
 ! D120  D(25,24,26,29)        179.5066         estimate D2E/DX2                !
 ! D121  D(24,25,27,30)         -0.7404         estimate D2E/DX2                !
 ! D122  D(24,25,27,31)        179.9631         estimate D2E/DX2                !
 ! D123  D(34,25,27,30)        176.0553         estimate D2E/DX2                !
 ! D124  D(34,25,27,31)         -3.2412         estimate D2E/DX2                !
 ! D125  D(24,25,34,35)        179.7421         estimate D2E/DX2                !
 ! D126  D(24,25,34,36)          3.0915         estimate D2E/DX2                !
 ! D127  D(27,25,34,35)          2.7051         estimate D2E/DX2                !
 ! D128  D(27,25,34,36)       -173.9454         estimate D2E/DX2                !
 ! D129  D(24,26,28,30)          0.0045         estimate D2E/DX2                !
 ! D130  D(24,26,28,32)       -179.8095         estimate D2E/DX2                !
 ! D131  D(29,26,28,30)        179.1667         estimate D2E/DX2                !
 ! D132  D(29,26,28,32)         -0.6473         estimate D2E/DX2                !
 ! D133  D(25,27,30,28)         -0.5849         estimate D2E/DX2                !
 ! D134  D(25,27,30,33)        179.9895         estimate D2E/DX2                !
 ! D135  D(31,27,30,28)        178.6919         estimate D2E/DX2                !
 ! D136  D(31,27,30,33)         -0.7338         estimate D2E/DX2                !
 ! D137  D(26,28,30,27)          0.9456         estimate D2E/DX2                !
 ! D138  D(26,28,30,33)       -179.6297         estimate D2E/DX2                !
 ! D139  D(32,28,30,27)       -179.2444         estimate D2E/DX2                !
 ! D140  D(32,28,30,33)          0.1804         estimate D2E/DX2                !
 ! D141  D(25,34,36,1)         -10.9999         estimate D2E/DX2                !
 ! D142  D(25,34,36,37)       -178.8606         estimate D2E/DX2                !
 ! D143  D(35,34,36,1)         172.4282         estimate D2E/DX2                !
 ! D144  D(35,34,36,37)          4.5676         estimate D2E/DX2                !
 ! D145  D(1,36,37,38)        -124.9012         estimate D2E/DX2                !
 ! D146  D(1,36,37,39)          52.6245         estimate D2E/DX2                !
 ! D147  D(34,36,37,38)         41.5201         estimate D2E/DX2                !
 ! D148  D(34,36,37,39)       -140.9542         estimate D2E/DX2                !
 ! D149  D(36,37,38,40)        177.0964         estimate D2E/DX2                !
 ! D150  D(36,37,38,41)         -1.8881         estimate D2E/DX2                !
 ! D151  D(39,37,38,40)         -0.4            estimate D2E/DX2                !
 ! D152  D(39,37,38,41)       -179.3845         estimate D2E/DX2                !
 ! D153  D(36,37,39,42)       -177.371          estimate D2E/DX2                !
 ! D154  D(36,37,39,43)          3.2925         estimate D2E/DX2                !
 ! D155  D(38,37,39,42)          0.2075         estimate D2E/DX2                !
 ! D156  D(38,37,39,43)       -179.1291         estimate D2E/DX2                !
 ! D157  D(37,38,40,44)          0.1259         estimate D2E/DX2                !
 ! D158  D(37,38,40,45)       -179.2874         estimate D2E/DX2                !
 ! D159  D(41,38,40,44)        179.109          estimate D2E/DX2                !
 ! D160  D(41,38,40,45)         -0.3043         estimate D2E/DX2                !
 ! D161  D(37,39,42,44)          0.2653         estimate D2E/DX2                !
 ! D162  D(37,39,42,71)        178.9093         estimate D2E/DX2                !
 ! D163  D(43,39,42,44)        179.608          estimate D2E/DX2                !
 ! D164  D(43,39,42,71)         -1.7481         estimate D2E/DX2                !
 ! D165  D(38,40,44,42)          0.3304         estimate D2E/DX2                !
 ! D166  D(38,40,44,78)       -179.3156         estimate D2E/DX2                !
 ! D167  D(45,40,44,42)        179.7428         estimate D2E/DX2                !
 ! D168  D(45,40,44,78)          0.0968         estimate D2E/DX2                !
 ! D169  D(39,42,44,40)         -0.5335         estimate D2E/DX2                !
 ! D170  D(39,42,44,78)        179.1184         estimate D2E/DX2                !
 ! D171  D(71,42,44,40)       -179.1609         estimate D2E/DX2                !
 ! D172  D(71,42,44,78)          0.491          estimate D2E/DX2                !
 ! D173  D(39,42,71,72)        178.4892         estimate D2E/DX2                !
 ! D174  D(39,42,71,73)         -1.8066         estimate D2E/DX2                !
 ! D175  D(44,42,71,72)         -2.8247         estimate D2E/DX2                !
 ! D176  D(44,42,71,73)        176.8796         estimate D2E/DX2                !
 ! D177  D(1,46,47,49)        -177.2735         estimate D2E/DX2                !
 ! D178  D(1,46,47,56)           2.2195         estimate D2E/DX2                !
 ! D179  D(48,46,47,49)          1.851          estimate D2E/DX2                !
 ! D180  D(48,46,47,56)       -178.656          estimate D2E/DX2                !
 ! D181  D(1,46,48,50)         177.4151         estimate D2E/DX2                !
 ! D182  D(1,46,48,51)          -1.3912         estimate D2E/DX2                !
 ! D183  D(47,46,48,50)         -1.5691         estimate D2E/DX2                !
 ! D184  D(47,46,48,51)        179.6246         estimate D2E/DX2                !
 ! D185  D(46,47,49,52)         -0.7604         estimate D2E/DX2                !
 ! D186  D(46,47,49,53)        179.3378         estimate D2E/DX2                !
 ! D187  D(56,47,49,52)        179.7939         estimate D2E/DX2                !
 ! D188  D(56,47,49,53)         -0.1079         estimate D2E/DX2                !
 ! D189  D(46,47,56,57)       -177.2934         estimate D2E/DX2                !
 ! D190  D(46,47,56,58)          2.9569         estimate D2E/DX2                !
 ! D191  D(49,47,56,57)          2.194          estimate D2E/DX2                !
 ! D192  D(49,47,56,58)       -177.5557         estimate D2E/DX2                !
 ! D193  D(46,48,50,52)          0.2133         estimate D2E/DX2                !
 ! D194  D(46,48,50,54)       -179.0963         estimate D2E/DX2                !
 ! D195  D(51,48,50,52)        178.9842         estimate D2E/DX2                !
 ! D196  D(51,48,50,54)         -0.3255         estimate D2E/DX2                !
 ! D197  D(47,49,52,50)         -0.631          estimate D2E/DX2                !
 ! D198  D(47,49,52,55)        179.6973         estimate D2E/DX2                !
 ! D199  D(53,49,52,50)        179.268          estimate D2E/DX2                !
 ! D200  D(53,49,52,55)         -0.4036         estimate D2E/DX2                !
 ! D201  D(48,50,52,49)          0.9009         estimate D2E/DX2                !
 ! D202  D(48,50,52,55)       -179.4282         estimate D2E/DX2                !
 ! D203  D(54,50,52,49)       -179.8061         estimate D2E/DX2                !
 ! D204  D(54,50,52,55)         -0.1352         estimate D2E/DX2                !
 ! D205  D(47,56,58,1)          -6.6132         estimate D2E/DX2                !
 ! D206  D(47,56,58,59)       -173.2003         estimate D2E/DX2                !
 ! D207  D(57,56,58,1)         173.642          estimate D2E/DX2                !
 ! D208  D(57,56,58,59)          7.0549         estimate D2E/DX2                !
 ! D209  D(1,58,59,60)        -114.749          estimate D2E/DX2                !
 ! D210  D(1,58,59,61)          61.5808         estimate D2E/DX2                !
 ! D211  D(56,58,59,60)         50.3413         estimate D2E/DX2                !
 ! D212  D(56,58,59,61)       -133.3289         estimate D2E/DX2                !
 ! D213  D(58,59,60,62)        175.7875         estimate D2E/DX2                !
 ! D214  D(58,59,60,63)         -3.0732         estimate D2E/DX2                !
 ! D215  D(61,59,60,62)         -0.5659         estimate D2E/DX2                !
 ! D216  D(61,59,60,63)       -179.4266         estimate D2E/DX2                !
 ! D217  D(58,59,61,64)       -176.6704         estimate D2E/DX2                !
 ! D218  D(58,59,61,65)          3.9601         estimate D2E/DX2                !
 ! D219  D(60,59,61,64)         -0.3588         estimate D2E/DX2                !
 ! D220  D(60,59,61,65)       -179.7283         estimate D2E/DX2                !
 ! D221  D(59,60,62,66)          0.7858         estimate D2E/DX2                !
 ! D222  D(59,60,62,68)       -178.5229         estimate D2E/DX2                !
 ! D223  D(63,60,62,66)        179.6541         estimate D2E/DX2                !
 ! D224  D(63,60,62,68)          0.3455         estimate D2E/DX2                !
 ! D225  D(59,61,64,66)          1.1055         estimate D2E/DX2                !
 ! D226  D(59,61,64,67)       -179.5034         estimate D2E/DX2                !
 ! D227  D(65,61,64,66)       -179.5286         estimate D2E/DX2                !
 ! D228  D(65,61,64,67)         -0.1375         estimate D2E/DX2                !
 ! D229  D(60,62,66,64)         -0.0617         estimate D2E/DX2                !
 ! D230  D(60,62,66,77)       -179.7363         estimate D2E/DX2                !
 ! D231  D(68,62,66,64)        179.24           estimate D2E/DX2                !
 ! D232  D(68,62,66,77)         -0.4346         estimate D2E/DX2                !
 ! D233  D(60,62,68,69)          4.062          estimate D2E/DX2                !
 ! D234  D(60,62,68,70)       -176.0334         estimate D2E/DX2                !
 ! D235  D(66,62,68,69)       -175.2689         estimate D2E/DX2                !
 ! D236  D(66,62,68,70)          4.6356         estimate D2E/DX2                !
 ! D237  D(61,64,66,62)         -0.8906         estimate D2E/DX2                !
 ! D238  D(61,64,66,77)        178.7785         estimate D2E/DX2                !
 ! D239  D(67,64,66,62)        179.719          estimate D2E/DX2                !
 ! D240  D(67,64,66,77)         -0.612          estimate D2E/DX2                !
 --------------------------------------------------------------------------------
 Trust Radius=3.00D-01 FncErr=5.00D-06 GrdErr=5.00D-06 EigMax=2.50D+02 EigMin=1.00D-04
 Number of steps in this run=    474 maximum allowed number of steps=    474.
 GradGradGradGradGradGradGradGradGradGradGradGradGradGradGradGradGradGrad

 Leave Link  103 at Wed Oct 18 13:09:45 2023, MaxMem=  2831155200 cpu:               0.0 elap:               0.0
 (Enter /opt/software/packages/g16/l202.exe)
 Symmetry turned off by external request.
 Stoichiometry    C36H27FeN9O6
                          Input orientation:                          
 ---------------------------------------------------------------------
 Center     Atomic      Atomic             Coordinates (Angstroms)
 Number     Number       Type             X           Y           Z
 ---------------------------------------------------------------------
      1         26           0       -0.184434    1.056919   -0.144835
      2          7           0       -0.451419    2.995219   -0.513428
      3          6           0        0.488758    3.800744    0.054910
      4          6           0       -1.380662    3.555416   -1.295196
      5          6           0        0.495301    5.183312   -0.127629
      6          6           0       -1.434423    4.929920   -1.521138
      7          1           0       -2.105118    2.885860   -1.763059
      8          6           0       -0.487540    5.759153   -0.926419
      9          1           0        1.270315    5.781190    0.353718
     10          1           0       -2.218169    5.332577   -2.163485
     11          1           0       -0.510086    6.837902   -1.087914
     12          6           0        1.461404    3.091447    0.847300
     13          1           0        2.261880    3.629665    1.368497
     14          7           0        1.336383    1.802411    0.913336
     15          6           0        2.290507    1.041579    1.627144
     16          6           0        3.663152    1.174227    1.372162
     17          6           0        1.845967    0.100266    2.555659
     18          6           0        4.579425    0.349767    2.023584
     19          1           0        4.008235    1.908214    0.639491
     20          6           0        2.781619   -0.704714    3.190144
     21          1           0        0.793233    0.012251    2.811337
     22          6           0        4.148629   -0.606085    2.938087
     23          1           0        5.643530    0.447813    1.802600
     24          7           0       -1.324766    0.966185    1.482344
     25          6           0       -1.567433   -0.302342    1.920273
     26          6           0       -1.888411    1.985869    2.138841
     27          6           0       -2.406096   -0.570178    3.001804
     28          6           0       -2.731297    1.791500    3.232272
     29          1           0       -1.672118    2.992666    1.773728
     30          6           0       -3.003881    0.496640    3.666076
     31          1           0       -2.565738   -1.604728    3.309908
     32          1           0       -3.166689    2.659005    3.729052
     33          1           0       -3.665352    0.320948    4.515809
     34          6           0       -0.830748   -1.318540    1.209579
     35          1           0       -0.941689   -2.376785    1.477071
     36          7           0        0.002425   -0.908579    0.302725
     37          6           0        0.743120   -1.841566   -0.453014
     38          6           0        0.162800   -3.021186   -0.945205
     39          6           0        2.074802   -1.546827   -0.755586
     40          6           0        0.909558   -3.890022   -1.739034
     41          1           0       -0.881447   -3.249386   -0.718594
     42          6           0        2.793830   -2.433059   -1.544912
     43          1           0        2.550607   -0.645460   -0.373852
     44          6           0        2.235231   -3.604716   -2.052178
     45          1           0        0.445636   -4.798543   -2.126297
     46          7           0        0.832057    0.948352   -1.873231
     47          6           0        0.111656    0.427151   -2.904075
     48          6           0        2.099895    1.303260   -2.105794
     49          6           0        0.659343    0.218928   -4.169790
     50          6           0        2.712470    1.129761   -3.346286
     51          1           0        2.661065    1.725292   -1.269654
     52          6           0        1.987054    0.570623   -4.393836
     53          1           0        0.036996   -0.212233   -4.955087
     54          1           0        3.754608    1.425694   -3.469744
     55          1           0        2.445660    0.415574   -5.371597
     56          6           0       -1.251757    0.103254   -2.565968
     57          1           0       -1.913000   -0.363905   -3.305886
     58          7           0       -1.648856    0.392034   -1.366889
     59          6           0       -2.925692   -0.032816   -0.936095
     60          6           0       -3.296486   -1.368859   -1.102599
     61          6           0       -3.787902    0.855622   -0.276739
     62          6           0       -4.520992   -1.788286   -0.592744
     63          1           0       -2.636466   -2.076826   -1.603922
     64          6           0       -5.014949    0.410398    0.205154
     65          1           0       -3.495538    1.899532   -0.153105
     66          6           0       -5.393215   -0.923069    0.060804
     67          1           0       -5.682706    1.110841    0.709696
     68          7           0       -4.889319   -3.202640   -0.742845
     69          8           0       -4.066049   -3.955139   -1.241911
     70          8           0       -5.995735   -3.545476   -0.358906
     71          7           0        4.185726   -2.095971   -1.873874
     72          8           0        4.819656   -2.894032   -2.544853
     73          8           0        4.627632   -1.033283   -1.461613
     74          7           0        2.293980   -1.707528    4.146619
     75          8           0        1.084697   -1.858193    4.245952
     76          8           0        3.123358   -2.338195    4.781233
     77          1           0       -6.341316   -1.294072    0.449007
     78          1           0        2.830732   -4.266585   -2.680162
     79          1           0        4.848041   -1.267668    3.448301
 ---------------------------------------------------------------------
 Rotational constants (GHZ):           0.0702516           0.0554828           0.0529604
 Leave Link  202 at Wed Oct 18 13:09:45 2023, MaxMem=  2831155200 cpu:               0.0 elap:               0.0
 (Enter /opt/software/packages/g16/l301.exe)
 Standard basis: def2SVP (5D, 7F)
 Ernie: Thresh=  0.10000D-02 Tol=  0.10000D-05 Strict=F.
   880 basis functions,  1545 primitive gaussians,   936 cartesian basis functions
   189 alpha electrons      189 beta electrons
       nuclear repulsion energy      8281.1073275289 Hartrees.
 IExCor= 3630 DFT=T Ex+Corr=B97D3 ExCW=0 ScaHFX=  0.000000
 ScaDFX=  1.000000  1.000000  1.000000  1.000000 ScalE2=  1.000000  1.000000
 IRadAn=      5 IRanWt=     -1 IRanGd=            0 ICorTp=0 IEmpDi=141
 NAtoms=   79 NActive=   79 NUniq=   79 SFac= 1.00D+00 NAtFMM=   60 NAOKFM=T Big=T
 Integral buffers will be    131072 words long.
 Raffenetti 2 integral format.
 Two-electron integral symmetry is turned off.
 R6Disp:  Grimme-D3(BJ) Dispersion energy=       -0.3666701961 Hartrees.
 Nuclear repulsion after empirical dispersion term =     8280.7406573328 Hartrees.
 ------------------------------------------------------------------------------
 Polarizable Continuum Model (PCM)
 =================================
 Model                : PCM.
 Atomic radii         : SMD-Coulomb.
 Polarization charges : Total charges.
 Charge compensation  : None.
 Solution method      : On-the-fly selection.
 Cavity type          : VdW (van der Waals Surface) (Alpha=1.000).
 Cavity algorithm     : GePol (No added spheres)
                        Default sphere list used, NSphG=   79.
                        Lebedev-Laikov grids with approx.  5.0 points / Ang**2.
                        Smoothing algorithm: York/Karplus (Gamma=1.0000).
                        Polarization charges: spherical gaussians, with
                                              point-specific exponents (IZeta= 3).
                        Self-potential: point-specific (ISelfS= 7).
                        Self-field    : sphere-specific E.n sum rule (ISelfD= 2).
 1st derivatives      : Analytical E(r).r(x)/FMM algorithm (CHGder, D1EAlg=3).
                        Cavity 1st derivative terms included.
 Solvent              : Acetonitrile, Eps=  35.688000 Eps(inf)=   1.806874
 ------------------------------------------------------------------------------
 GePol: Number of generator spheres                  =      79
 GePol: Total number of spheres                      =      79
 GePol: Number of exposed spheres                    =      78 ( 98.73%)
 GePol: Number of points                             =    5797
 GePol: Average weight of points                     =       0.12
 GePol: Minimum weight of points                     =   0.20D-10
 GePol: Maximum weight of points                     =    0.21559
 GePol: Number of points with low weight             =     411
 GePol: Fraction of low-weight points (<1% of avg)   =       7.09%
 GePol: Cavity surface area                          =    666.661 Ang**2
 GePol: Cavity volume                                =    741.239 Ang**3
 ------------------------------------------------------------------------------
 Atomic radii for non-electrostatic terms: SMD-CDS.
 ------------------------------------------------------------------------------
 PCM non-electrostatic energy =        -0.0102311045 Hartrees.
 Nuclear repulsion after PCM non-electrostatic terms =     8280.7304262283 Hartrees.
 Leave Link  301 at Wed Oct 18 13:09:45 2023, MaxMem=  2831155200 cpu:               0.1 elap:               0.1
 (Enter /opt/software/packages/g16/l302.exe)
 NPDir=0 NMtPBC=     1 NCelOv=     1 NCel=       1 NClECP=     1 NCelD=      1
         NCelK=      1 NCelE2=     1 NClLst=     1 CellRange=     0.0.
 One-electron integrals computed using PRISM.
   1 Symmetry operations used in ECPInt.
 ECPInt:  NShTT=   79401 NPrTT=  302260 LenC2=   66044 LenP2D=  157651.
 LDataN:  DoStor=T MaxTD1= 6 Len=  172
 NBasis=   880 RedAO= T EigKep=  2.13D-04  NBF=   880
 NBsUse=   880 1.00D-06 EigRej= -1.00D+00 NBFU=   880
 Precomputing XC quadrature grid using
 IXCGrd= 4 IRadAn=           5 IRanWt=          -1 IRanGd=           0 AccXCQ= 0.00D+00.
 Generated NRdTot=       0 NPtTot=           0 NUsed=           0 NTot=          32
 NSgBfM=   889   877   882   889   889 MxSgAt=    79 MxSgA2=    79.
 Leave Link  302 at Wed Oct 18 13:09:47 2023, MaxMem=  2831155200 cpu:              14.6 elap:               1.8
 (Enter /opt/software/packages/g16/l303.exe)
 DipDrv:  MaxL=1.
 Leave Link  303 at Wed Oct 18 13:09:47 2023, MaxMem=  2831155200 cpu:               0.3 elap:               0.1
 (Enter /opt/software/packages/g16/l401.exe)
 ExpMin= 3.37D-02 ExpMax= 6.09D+04 ExpMxC= 9.15D+03 IAcc=3 IRadAn=         5 AccDes= 0.00D+00
 Harris functional with IExCor= 3630 and IRadAn=       5 diagonalized for initial guess.
 HarFok:  IExCor= 3630 AccDes= 0.00D+00 IRadAn=         5 IDoV= 1 UseB2=F ITyADJ=14
 ICtDFT=  3500011 ScaDFX=  1.000000  1.000000  1.000000  1.000000
 FoFCou: FMM=F IPFlag=           0 FMFlag=      100000 FMFlg1=        2001
         NFxFlg=           0 DoJE=T BraDBF=F KetDBF=T FulRan=T
         wScrn=  0.000000 ICntrl=       500 IOpCl=  0 I1Cent=   200000004 NGrid=           0
         NMat0=    1 NMatS0=      1 NMatT0=    0 NMatD0=    1 NMtDS0=    0 NMtDT0=    0
 Symmetry not used in FoFCou.
 Harris En= -3592.89111288571    
 JPrj=0 DoOrth=F DoCkMO=F.
 Leave Link  401 at Wed Oct 18 13:09:54 2023, MaxMem=  2831155200 cpu:              98.9 elap:               6.9
 (Enter /opt/software/packages/g16/l502.exe)
 Two-electron integral symmetry not used.
 Closed shell SCF:
 Using DIIS extrapolation, IDIIS=  1040.
 NGot=  2831155200 LenX=  2829378604 LenY=  2828501572
 Requested convergence on RMS density matrix=1.00D-08 within 128 cycles.
 Requested convergence on MAX density matrix=1.00D-06.
 Requested convergence on             energy=1.00D-06.
 No special actions if energy rises.
 Fock matrices will be formed incrementally for  20 cycles.

 Cycle   1  Pass 1  IDiag  1:
 FoFJK:  IHMeth= 1 ICntrl=     500 DoSepK=F KAlg= 0 I1Cent=           0 FoldK=F
 IRaf= 970000000 NMat=       1 IRICut=       1 DoRegI=T DoRafI=F ISym2E= 0 IDoP0=0 IntGTp=1.
 FoFCou: FMM=T IPFlag=           0 FMFlag=      100000 FMFlg1=        2001
         NFxFlg=           0 DoJE=T BraDBF=F KetDBF=F FulRan=T
         wScrn=  0.000000 ICntrl=       500 IOpCl=  0 I1Cent=           0 NGrid=           0
         NMat0=    1 NMatS0=      1 NMatT0=    0 NMatD0=    1 NMtDS0=    0 NMtDT0=    0
 Symmetry not used in FoFCou.
 FMM levels:  10  Number of levels for PrismC:   9
 Inv3:  Mode=1 IEnd=   100815627.
 Iteration    1 A*A^-1 deviation from unit magnitude is 8.22D-15 for   5791.
 Iteration    1 A*A^-1 deviation from orthogonality  is 8.36D-15 for   4671   3768.
 Iteration    1 A^-1*A deviation from unit magnitude is 9.55D-15 for   3768.
 Iteration    1 A^-1*A deviation from orthogonality  is 6.84D-15 for   5764   1194.
 E= -3591.86072762960    
 DIIS: error= 3.71D-02 at cycle   1 NSaved=   1.
 NSaved= 1 IEnMin= 1 EnMin= -3591.86072762960     IErMin= 1 ErrMin= 3.71D-02
 ErrMax= 3.71D-02  0.00D+00 EMaxC= 1.00D-01 BMatC= 1.02D+00 BMatP= 1.02D+00
 IDIUse=3 WtCom= 6.29D-01 WtEn= 3.71D-01
 Coeff-Com:  0.100D+01
 Coeff-En:   0.100D+01
 Coeff:      0.100D+01
 Gap=    -0.005 Goal=   None    Shift=    0.000
 GapD=   -0.005 DampG=0.250 DampE=0.250 DampFc=0.1250 IDamp=-1.
 Damping current iteration by 1.25D-01
 RMSDP=3.68D-03 MaxDP=4.35D-01              OVMax= 9.03D-01

 Cycle   2  Pass 1  IDiag  1:
 RMSU=  4.56D-04    CP:  9.96D-01
 E= -3592.03236230680     Delta-E=       -0.171634677197 Rises=F Damp=T
 DIIS: error= 2.18D-02 at cycle   2 NSaved=   2.
 NSaved= 2 IEnMin= 2 EnMin= -3592.03236230680     IErMin= 2 ErrMin= 2.18D-02
 ErrMax= 2.18D-02  0.00D+00 EMaxC= 1.00D-01 BMatC= 5.14D-01 BMatP= 1.02D+00
 IDIUse=3 WtCom= 7.82D-01 WtEn= 2.18D-01
 Coeff-Com: -0.525D+00 0.153D+01
 Coeff-En:   0.000D+00 0.100D+01
 Coeff:     -0.411D+00 0.141D+01
 Gap=    -0.050 Goal=   None    Shift=    0.000
 RMSDP=3.21D-03 MaxDP=5.97D-01 DE=-1.72D-01 OVMax= 7.12D-01

 Cycle   3  Pass 1  IDiag  1:
 RMSU=  2.99D-03    CP:  9.70D-01  3.00D+00
 E= -3580.27215237597     Delta-E=       11.760209930830 Rises=F Damp=F
 DIIS: error= 7.09D-02 at cycle   3 NSaved=   3.
 NSaved= 3 IEnMin= 2 EnMin= -3592.03236230680     IErMin= 2 ErrMin= 2.18D-02
 ErrMax= 7.09D-02  0.00D+00 EMaxC= 1.00D-01 BMatC= 1.09D+01 BMatP= 5.14D-01
 IDIUse=2 WtCom= 0.00D+00 WtEn= 1.00D+00
 Coeff-En:   0.000D+00 0.924D+00 0.758D-01
 Coeff:      0.000D+00 0.924D+00 0.758D-01
 Gap=    -0.002 Goal=   None    Shift=    0.000
 RMSDP=2.83D-03 MaxDP=5.94D-01 DE= 1.18D+01 OVMax= 7.88D-01

 Cycle   4  Pass 1  IDiag  1:
 RMSU=  1.24D-03    CP:  9.77D-01  3.00D+00  1.49D-01
 E= -3592.02757035098     Delta-E=      -11.755417975008 Rises=F Damp=F
 DIIS: error= 3.83D-02 at cycle   4 NSaved=   4.
 NSaved= 4 IEnMin= 2 EnMin= -3592.03236230680     IErMin= 2 ErrMin= 2.18D-02
 ErrMax= 3.83D-02  0.00D+00 EMaxC= 1.00D-01 BMatC= 9.20D-01 BMatP= 5.14D-01
 IDIUse=2 WtCom= 0.00D+00 WtEn= 1.00D+00
 EnCoef did   100 forward-backward iterations
 Coeff-En:   0.449D+00 0.162D-01 0.000D+00 0.535D+00
 Coeff:      0.449D+00 0.162D-01 0.000D+00 0.535D+00
 Gap=     0.073 Goal=   None    Shift=    0.000
 RMSDP=1.10D-03 MaxDP=1.32D-01 DE=-1.18D+01 OVMax= 1.92D-01

 Cycle   5  Pass 1  IDiag  1:
 RMSU=  6.72D-04    CP:  9.84D-01  2.14D+00  8.12D-02  5.91D-01
 E= -3592.73833301944     Delta-E=       -0.710762668457 Rises=F Damp=F
 DIIS: error= 8.72D-03 at cycle   5 NSaved=   5.
 NSaved= 5 IEnMin= 5 EnMin= -3592.73833301944     IErMin= 5 ErrMin= 8.72D-03
 ErrMax= 8.72D-03  0.00D+00 EMaxC= 1.00D-01 BMatC= 7.04D-02 BMatP= 5.14D-01
 IDIUse=3 WtCom= 9.13D-01 WtEn= 8.72D-02
 Coeff-Com:  0.358D+00-0.171D+00-0.244D-02 0.342D+00 0.474D+00
 Coeff-En:   0.000D+00 0.000D+00 0.000D+00 0.180D-01 0.982D+00
 Coeff:      0.326D+00-0.156D+00-0.223D-02 0.314D+00 0.518D+00
 Gap=     0.046 Goal=   None    Shift=    0.000
 RMSDP=3.99D-04 MaxDP=4.11D-02 DE=-7.11D-01 OVMax= 6.60D-02

 Cycle   6  Pass 1  IDiag  1:
 RMSU=  2.78D-04    CP:  9.85D-01  2.22D+00  9.24D-02  6.22D-01  5.85D-01
 E= -3592.78044557355     Delta-E=       -0.042112554114 Rises=F Damp=F
 DIIS: error= 3.34D-03 at cycle   6 NSaved=   6.
 NSaved= 6 IEnMin= 6 EnMin= -3592.78044557355     IErMin= 6 ErrMin= 3.34D-03
 ErrMax= 3.34D-03  0.00D+00 EMaxC= 1.00D-01 BMatC= 1.85D-02 BMatP= 7.04D-02
 IDIUse=3 WtCom= 9.67D-01 WtEn= 3.34D-02
 Coeff-Com:  0.122D+00-0.629D-01 0.108D-02 0.129D+00 0.371D+00 0.440D+00
 Coeff-En:   0.000D+00 0.000D+00 0.000D+00 0.000D+00 0.259D+00 0.741D+00
 Coeff:      0.118D+00-0.608D-01 0.104D-02 0.125D+00 0.367D+00 0.450D+00
 Gap=     0.048 Goal=   None    Shift=    0.000
 RMSDP=1.91D-04 MaxDP=1.48D-02 DE=-4.21D-02 OVMax= 2.74D-02

 Cycle   7  Pass 1  IDiag  1:
 RMSU=  1.24D-04    CP:  9.84D-01  2.21D+00  9.89D-02  6.02D-01  6.42D-01
                    CP:  5.10D-01
 E= -3592.79341892171     Delta-E=       -0.012973348161 Rises=F Damp=F
 DIIS: error= 1.91D-03 at cycle   7 NSaved=   7.
 NSaved= 7 IEnMin= 7 EnMin= -3592.79341892171     IErMin= 7 ErrMin= 1.91D-03
 ErrMax= 1.91D-03  0.00D+00 EMaxC= 1.00D-01 BMatC= 3.21D-03 BMatP= 1.85D-02
 IDIUse=3 WtCom= 9.81D-01 WtEn= 1.91D-02
 Coeff-Com:  0.294D-01-0.139D-01-0.632D-04 0.381D-01 0.201D+00 0.345D+00
 Coeff-Com:  0.400D+00
 Coeff-En:   0.000D+00 0.000D+00 0.000D+00 0.000D+00 0.000D+00 0.180D+00
 Coeff-En:   0.820D+00
 Coeff:      0.289D-01-0.136D-01-0.620D-04 0.374D-01 0.197D+00 0.342D+00
 Coeff:      0.408D+00
 Gap=     0.048 Goal=   None    Shift=    0.000
 RMSDP=8.74D-05 MaxDP=1.01D-02 DE=-1.30D-02 OVMax= 2.16D-02

 Cycle   8  Pass 1  IDiag  1:
 RMSU=  5.01D-05    CP:  9.84D-01  2.20D+00  9.37D-02  6.05D-01  6.63D-01
                    CP:  5.62D-01  4.64D-01
 E= -3592.79610975276     Delta-E=       -0.002690831046 Rises=F Damp=F
 DIIS: error= 1.53D-03 at cycle   8 NSaved=   8.
 NSaved= 8 IEnMin= 8 EnMin= -3592.79610975276     IErMin= 8 ErrMin= 1.53D-03
 ErrMax= 1.53D-03  0.00D+00 EMaxC= 1.00D-01 BMatC= 6.45D-04 BMatP= 3.21D-03
 IDIUse=3 WtCom= 9.85D-01 WtEn= 1.53D-02
 Coeff-Com:  0.283D-02 0.308D-02-0.141D-03 0.119D-01 0.109D+00 0.213D+00
 Coeff-Com:  0.324D+00 0.337D+00
 Coeff-En:   0.000D+00 0.000D+00 0.000D+00 0.000D+00 0.000D+00 0.000D+00
 Coeff-En:   0.157D+00 0.843D+00
 Coeff:      0.279D-02 0.303D-02-0.138D-03 0.118D-01 0.108D+00 0.209D+00
 Coeff:      0.321D+00 0.344D+00
 Gap=     0.047 Goal=   None    Shift=    0.000
 RMSDP=3.28D-05 MaxDP=5.07D-03 DE=-2.69D-03 OVMax= 1.44D-02

 Cycle   9  Pass 1  IDiag  1:
 RMSU=  2.16D-05    CP:  9.84D-01  2.20D+00  9.42D-02  6.05D-01  6.62D-01
                    CP:  5.69D-01  5.20D-01  5.29D-01
 E= -3592.79651942365     Delta-E=       -0.000409670887 Rises=F Damp=F
 DIIS: error= 7.38D-04 at cycle   9 NSaved=   9.
 NSaved= 9 IEnMin= 9 EnMin= -3592.79651942365     IErMin= 9 ErrMin= 7.38D-04
 ErrMax= 7.38D-04  0.00D+00 EMaxC= 1.00D-01 BMatC= 1.87D-04 BMatP= 6.45D-04
 IDIUse=3 WtCom= 9.93D-01 WtEn= 7.38D-03
 Coeff-Com: -0.978D-02 0.138D-01-0.678D-04 0.181D-02 0.555D-01 0.112D+00
 Coeff-Com:  0.190D+00 0.284D+00 0.352D+00
 Coeff-En:   0.000D+00 0.000D+00 0.000D+00 0.000D+00 0.000D+00 0.000D+00
 Coeff-En:   0.000D+00 0.221D+00 0.779D+00
 Coeff:     -0.971D-02 0.137D-01-0.673D-04 0.180D-02 0.551D-01 0.111D+00
 Coeff:      0.189D+00 0.284D+00 0.355D+00
 Gap=     0.047 Goal=   None    Shift=    0.000
 RMSDP=1.45D-05 MaxDP=2.15D-03 DE=-4.10D-04 OVMax= 6.01D-03

 Cycle  10  Pass 1  IDiag  1:
 RMSU=  8.18D-06    CP:  9.84D-01  2.20D+00  9.49D-02  6.05D-01  6.63D-01
                    CP:  5.72D-01  5.33D-01  5.57D-01  4.65D-01
 E= -3592.79658447465     Delta-E=       -0.000065051001 Rises=F Damp=F
 DIIS: error= 2.67D-04 at cycle  10 NSaved=  10.
 NSaved=10 IEnMin=10 EnMin= -3592.79658447465     IErMin=10 ErrMin= 2.67D-04
 ErrMax= 2.67D-04  0.00D+00 EMaxC= 1.00D-01 BMatC= 1.18D-04 BMatP= 1.87D-04
 IDIUse=3 WtCom= 9.97D-01 WtEn= 2.67D-03
 EnCoef did     3 forward-backward iterations
 Coeff-Com: -0.153D-01 0.198D-01-0.108D-03-0.112D-02 0.325D-01 0.631D-01
 Coeff-Com:  0.105D+00 0.178D+00 0.286D+00 0.333D+00
 Coeff-En:   0.000D+00 0.000D+00 0.000D+00 0.000D+00 0.000D+00 0.000D+00
 Coeff-En:   0.000D+00 0.649D-02 0.262D+00 0.731D+00
 Coeff:     -0.153D-01 0.197D-01-0.108D-03-0.112D-02 0.325D-01 0.630D-01
 Coeff:      0.105D+00 0.177D+00 0.286D+00 0.334D+00
 Gap=     0.047 Goal=   None    Shift=    0.000
 RMSDP=4.56D-06 MaxDP=5.33D-04 DE=-6.51D-05 OVMax= 1.34D-03

 Cycle  11  Pass 1  IDiag  1:
 RMSU=  2.55D-06    CP:  9.84D-01  2.20D+00  9.49D-02  6.05D-01  6.63D-01
                    CP:  5.72D-01  5.30D-01  5.52D-01  5.20D-01  5.71D-01
 E= -3592.79659066550     Delta-E=       -0.000006190856 Rises=F Damp=F
 DIIS: error= 2.94D-04 at cycle  11 NSaved=  11.
 NSaved=11 IEnMin=11 EnMin= -3592.79659066550     IErMin=10 ErrMin= 2.67D-04
 ErrMax= 2.94D-04  0.00D+00 EMaxC= 1.00D-01 BMatC= 1.18D-04 BMatP= 1.18D-04
 IDIUse=3 WtCom= 9.97D-01 WtEn= 2.67D-03
 EnCoef did   100 forward-backward iterations
 Coeff-Com: -0.170D-01 0.219D-01-0.104D-03-0.148D-02 0.286D-01 0.538D-01
 Coeff-Com:  0.838D-01 0.139D+00 0.219D+00 0.245D+00 0.227D+00
[...]
      6   0.436491D-02 -0.315432D-02 -0.249809D-02  0.220681D-02  0.177679D-02
      7   0.199153D-02  0.489515D-03 -0.252471D-02 -0.329225D-02  0.988769D-04
      8  -0.337667D+00 -0.115004D+00  0.210119D+00 -0.126849D+00 -0.210008D+00
      9   0.245333D+00  0.621816D-03 -0.144985D+00  0.561502D-01  0.429989D-01
     10  -0.165676D+00 -0.246651D-01  0.136787D+00 -0.419455D-01 -0.171313D-01
     11   0.435151D-01 -0.189429D-02  0.332358D-01 -0.575852D-03 -0.237553D-01
     12  -0.465591D-02  0.813389D-02 -0.609148D-02  0.345191D-02 -0.452451D-02
     13  -0.340012D-03 -0.826631D-02 -0.767458D-02 -0.144893D-01  0.192937D-01
     14   0.134387D-01 -0.129176D-01  0.166621D-01 -0.554489D-02 -0.447470D-02
     15   0.170732D-01  0.199318D-01 -0.188463D-01 -0.704543D-02  0.500802D-02
     16  -0.748128D-02  0.515080D-02  0.132577D-01  0.850666D-02 -0.949327D-02
                 6             7             8             9            10 
      1  -0.359275D+04 -0.359274D+04 -0.359274D+04 -0.359274D+04 -0.359273D+04
      2   0.101682D-01 -0.404282D-01 -0.181933D+00  0.127854D+00  0.747723D-01
      3  -0.551597D-01 -0.206360D+00 -0.177935D+00  0.136242D+00 -0.107035D-01
      4   0.496695D-01 -0.118808D+00  0.449492D+00 -0.666568D+00  0.319462D-01
      5  -0.245554D-03  0.438852D-02  0.128955D-01 -0.764697D-02 -0.362871D-02
      6   0.505020D-02  0.164544D-01  0.111663D-01 -0.885026D-02  0.513600D-03
      7  -0.668291D-03  0.841081D-02 -0.279238D-01  0.471565D-01 -0.144356D-02
      8   0.100619D-01 -0.774970D-01 -0.230543D+00  0.555133D-01 -0.237567D-01
      9   0.103115D+00 -0.264466D+00 -0.889644D-01  0.148390D-01  0.805039D-01
     10   0.202503D-01 -0.154888D+00  0.513849D-01 -0.108893D+00 -0.355024D-01
     11  -0.480612D-01 -0.406779D-02 -0.244368D-01  0.330973D-01  0.556079D-02
     12   0.157780D-01  0.120244D+00  0.264463D-01  0.469738D-01 -0.177097D-01
     13  -0.823976D-02 -0.818531D-01  0.366330D-01 -0.803665D-01 -0.180060D-01
     14   0.173664D-01 -0.504584D-02  0.181815D-01 -0.268805D-01  0.169717D-01
     15  -0.545179D-02  0.344388D-01  0.458546D-01 -0.325358D-01 -0.149249D-01
     16   0.220765D-02  0.417681D-02 -0.373743D-01  0.426929D-01  0.854875D-02
                11            12            13            14            15 
      1  -0.359273D+04 -0.359273D+04 -0.359273D+04 -0.359273D+04 -0.359273D+04
      2   0.656017D-01  0.609569D-01 -0.114930D+00 -0.638332D-01 -0.529424D-02
      3   0.725578D-01 -0.739063D-01 -0.157480D+00 -0.181407D+00 -0.240724D-01
      4   0.741470D-01  0.540528D-01  0.390395D-01 -0.913193D-01  0.142831D+00
      5  -0.544937D-02 -0.424265D-02  0.540185D-02  0.495707D-02 -0.572610D-03
      6  -0.559611D-02  0.370054D-02  0.103347D-01  0.150324D-01  0.186550D-02
      7  -0.561842D-02 -0.533180D-02 -0.295761D-02  0.702991D-02 -0.103023D-01
      8  -0.275918D-01 -0.361627D-01  0.626223D-01  0.201372D-01 -0.853486D-01
      9  -0.115328D-01  0.208207D-01  0.122901D-01 -0.130805D+00 -0.987120D-01
     10   0.219141D+00  0.183626D+00 -0.103640D+00 -0.141616D+00  0.281745D+00
     11   0.113816D-01 -0.193399D-01  0.104262D-01 -0.262239D-01 -0.942134D-02
     12  -0.312064D-01  0.474318D-01  0.620566D-01  0.105621D+00  0.841841D-02
     13  -0.126515D-01 -0.314052D-01 -0.478149D-01 -0.573754D-01 -0.445562D-02
     14   0.980087D-02 -0.145147D-01  0.707310D-02 -0.143767D-01  0.583508D-02
     15  -0.485098D-01 -0.291206D-01  0.340780D-01  0.265482D-01 -0.114092D-01
     16   0.110848D-01  0.345579D-02  0.602574D-02  0.104769D-01 -0.217561D-01
                16            17            18            19            20 
      1  -0.359273D+04 -0.359272D+04 -0.359271D+04 -0.359271D+04 -0.359271D+04
      2   0.233587D+00  0.342467D+00  0.421188D-01  0.936261D-01  0.151801D+00
      3   0.217891D+00  0.108083D+01  0.226631D+00 -0.303864D-01 -0.331800D+00
      4  -0.830324D+00  0.289051D+00 -0.117548D+00 -0.208067D+00 -0.483588D+00
      5  -0.168355D-01 -0.286071D-01 -0.613180D-02 -0.873061D-02 -0.205757D-01
      6  -0.167319D-01 -0.857704D-01 -0.189827D-01  0.483685D-02  0.338759D-01
      7   0.625937D-01 -0.238564D-01  0.955367D-02  0.176669D-01  0.441727D-01
      8   0.463579D-01 -0.150749D+00  0.202866D+00  0.372264D+00 -0.125968D+00
      9   0.342151D-01 -0.232798D+00  0.447136D-01  0.498737D+00 -0.553618D+00
     10   0.378997D+00 -0.474141D-01 -0.226225D+00 -0.114576D+01  0.107208D+00
     11  -0.911758D-02  0.158664D+00  0.654678D-01  0.320662D-01 -0.552224D-01
     12   0.115427D-01 -0.748373D+00 -0.202811D+00  0.401275D-01  0.357555D+00
     13  -0.123164D+00  0.285955D+00 -0.535498D-01 -0.624369D-02 -0.164972D+00
     14  -0.896346D-01 -0.434526D-02 -0.511704D-01  0.167961D-01 -0.769093D-01
     15  -0.104247D+00 -0.275814D+00 -0.198005D-01  0.174533D-01  0.641553D-01
     16   0.616927D-01  0.815182D-01  0.222139D-01  0.922718D-04 -0.584678D-02
                21            22            23            24            25 
      1  -0.359271D+04 -0.359270D+04 -0.359270D+04 -0.359270D+04 -0.359269D+04
      2   0.135586D+00 -0.224400D+00 -0.210169D-01  0.715372D-01  0.203909D+00
      3   0.526098D-01 -0.415179D+00  0.156104D+00  0.263309D+00  0.197999D-02
      4  -0.105999D+00  0.116282D+00 -0.556302D-01 -0.863297D-01  0.968832D-01
      5  -0.153078D-01  0.212136D-01  0.445252D-03 -0.490762D-02 -0.223477D-01
      6  -0.311212D-02  0.396244D-01 -0.154609D-01 -0.279808D-01  0.101471D-02
      7   0.955247D-02 -0.102208D-01  0.915332D-02  0.749231D-02 -0.102462D-01
      8   0.226247D+00  0.300887D+00  0.131530D+01 -0.266030D-02  0.189103D+00
      9   0.123663D+01 -0.201288D+00 -0.230155D+00  0.172031D+00  0.784965D-01
     10   0.798822D+00 -0.133262D+00  0.216193D+00  0.128310D-01 -0.841886D-01
     11   0.290631D-01 -0.112918D+00  0.361663D-01  0.148355D-01  0.205124D+00
     12   0.596634D-01  0.365669D+00 -0.941880D-01 -0.287156D+00  0.741803D-01
     13  -0.200271D-01 -0.127691D+00  0.433335D-01 -0.563521D-01 -0.144414D+00
     14  -0.441537D-01  0.540288D-02 -0.248538D-01  0.380714D-02 -0.299747D-01
     15  -0.317026D-01  0.228522D+00 -0.374959D-01 -0.317623D-01  0.422312D-01
     16   0.253374D-01 -0.107247D+00  0.145213D-01  0.539111D-01  0.475094D-03
                26            27            28            29            30 
      1  -0.359269D+04 -0.359269D+04 -0.359269D+04 -0.359269D+04 -0.359269D+04
      2   0.801271D-01  0.163749D-01  0.209426D+00  0.913174D-01  0.318785D-01
      3  -0.243263D+00 -0.174361D+00  0.133710D+00  0.115525D+00 -0.158280D-01
      4  -0.178747D-01  0.527768D-02 -0.304826D+00  0.145390D+00 -0.205657D+00
      5  -0.877974D-02 -0.175446D-02 -0.224237D-01 -0.122084D-01 -0.493995D-02
      6   0.226973D-01  0.168001D-01 -0.143122D-01 -0.940069D-02 -0.203944D-02
      7  -0.137129D-03 -0.653070D-03  0.365341D-01 -0.142246D-01  0.288936D-01
      8   0.116895D-02 -0.696077D-01 -0.128271D+00 -0.848691D-01 -0.396346D+00
      9  -0.262031D+00 -0.124295D+00  0.181405D+00 -0.258384D-01  0.387516D-01
     10  -0.148180D+00  0.836892D-01  0.139874D+00 -0.183653D+00  0.453205D-01
     11  -0.177328D+00 -0.437888D-01  0.100101D+00  0.327568D-01 -0.809756D-01
     12  -0.260788D-01  0.130041D+00 -0.273786D-01 -0.208587D+00 -0.135753D+00
     13   0.216388D+00 -0.708594D-01 -0.109935D+00  0.200606D+00  0.194140D-01
     14   0.145875D+00  0.504902D-02  0.837606D-02  0.124586D+00  0.425994D-01
     15  -0.478505D-01  0.546195D-01 -0.102655D+00 -0.242629D+00 -0.591848D-01
     16  -0.664428D-01 -0.525611D-01  0.602899D-01  0.765689D-01 -0.602708D-01
                31            32            33            34            35 
      1  -0.359269D+04 -0.359269D+04 -0.359269D+04 -0.359269D+04 -0.359269D+04
      2  -0.102720D+00 -0.419408D-01 -0.182242D+00 -0.144200D+00 -0.266176D+00
      3   0.313300D+00 -0.243789D-01  0.334335D-01  0.127990D+00  0.222317D+00
      4   0.338355D+00 -0.147113D-01  0.242849D+00 -0.140340D+00  0.409254D-01
      5   0.104558D-01  0.406656D-02  0.188136D-01  0.151946D-01  0.307880D-01
      6  -0.318747D-01  0.175157D-02 -0.781383D-02 -0.136912D-01 -0.259827D-01
      7  -0.344758D-01  0.219234D-02 -0.259764D-01  0.158534D-01 -0.468542D-02
      8  -0.122397D+00 -0.135691D-01  0.176802D+00  0.343748D+00 -0.210012D+00
      9  -0.364717D+00  0.276564D-01  0.224250D+00 -0.152026D+00 -0.991680D-01
     10   0.205552D+00  0.640953D-01  0.140375D+00 -0.327753D-02 -0.366906D-01
     11   0.111464D+00  0.643305D-01  0.548106D-02  0.373531D-02 -0.272868D+00
     12  -0.234958D+00 -0.202802D-01  0.116121D+00 -0.983406D-01 -0.546262D-01
     13   0.628837D-01 -0.132194D+00 -0.193117D+00  0.589637D-01  0.207136D+00
     14   0.349788D-01 -0.109745D-01 -0.119092D+00  0.859265D-01 -0.136140D+00
     15  -0.340111D-01 -0.399279D-02  0.130298D+00  0.273627D-01 -0.162822D+00
     16  -0.142420D-02  0.150015D-01  0.209737D-01 -0.386988D-02  0.904592D-01
                36            37            38            39            40 
      1  -0.359269D+04 -0.359269D+04 -0.359269D+04 -0.359269D+04 -0.359269D+04
      2   0.307235D+00 -0.101368D+00  0.337666D-01  0.345781D-01  0.190351D+00
      3   0.303001D-01  0.349945D+00 -0.971672D-02  0.169604D+00  0.278987D-01
      4  -0.617391D-01 -0.257508D+00  0.180083D-02  0.247578D+00 -0.172654D+00
      5  -0.312963D-01  0.144172D-01 -0.484052D-02 -0.574575D-02 -0.222691D-01
      6  -0.510905D-02 -0.403765D-01  0.158068D-02 -0.191188D-01 -0.369470D-02
      7   0.793046D-02  0.278348D-01 -0.844476D-03 -0.258496D-01  0.200736D-01
      8  -0.294378D+00  0.709851D-01 -0.113091D-01 -0.216998D-01  0.215512D+00
      9   0.235444D+00  0.362002D-01  0.848887D-01 -0.488573D-01  0.790914D-01
     10  -0.127477D+00 -0.439635D+00 -0.277173D-01 -0.257509D+00  0.141138D+00
     11   0.568803D-02  0.229009D+00  0.412831D-01  0.182986D+00  0.230722D+00
     12   0.310200D-01 -0.345889D+00 -0.122923D+00 -0.332146D+00 -0.931427D-01
     13  -0.735431D-01  0.861864D-01  0.443818D-01  0.492228D-01 -0.134702D+00
     14   0.937291D-02 -0.411645D-01  0.640282D-01  0.103103D+00 -0.374991D-01
     15   0.607615D-01  0.138401D+00  0.102246D-01 -0.706445D-01  0.771041D-01
     16   0.443779D-01  0.139423D-01 -0.359323D-01  0.820978D-02 -0.443471D-01
                41            42            43            44            45 
      1  -0.359269D+04 -0.359268D+04 -0.359268D+04 -0.359268D+04 -0.359268D+04
      2  -0.526040D-01  0.403596D-01 -0.115366D+00  0.195454D+00 -0.145229D+00
      3   0.378535D-01  0.374751D-02  0.149443D+00 -0.213284D+00 -0.106974D+00
      4  -0.123662D-01 -0.123766D+00  0.114523D+00 -0.138680D+00 -0.944967D-01
      5   0.686413D-02 -0.477869D-02  0.155237D-01 -0.241647D-01  0.176520D-01
      6  -0.417494D-02 -0.695884D-03 -0.166487D-01  0.241737D-01  0.110885D-01
      7   0.377704D-03  0.146616D-01 -0.141410D-01  0.174419D-01  0.109667D-01
      8  -0.736793D-02 -0.197950D-01  0.950625D-01 -0.508206D-01 -0.176634D-02
      9  -0.123081D+00  0.109654D+00 -0.228510D+00 -0.150168D+00  0.905595D-02
     10   0.113452D+00 -0.927798D-01  0.497584D+00 -0.542898D+00 -0.320731D-01
     11   0.316098D-01  0.459304D-01 -0.152339D+00  0.245828D+00  0.110011D+00
     12  -0.980508D-02  0.119533D+00  0.434616D-01 -0.199803D+00 -0.686196D-01
     13  -0.191881D-01 -0.707845D-01  0.116464D-01  0.408067D-01 -0.460757D-03
     14  -0.302184D-02  0.103361D+00 -0.279556D-01  0.946535D-01 -0.138366D-01
     15   0.150538D-01  0.132405D+00 -0.164607D+00  0.125837D+00  0.323286D-01
     16  -0.156242D-02 -0.266142D-01  0.139042D+00 -0.161002D+00  0.246978D-01
                46            47            48            49            50 
      1  -0.359268D+04 -0.359268D+04 -0.359268D+04 -0.359268D+04 -0.359268D+04
      2   0.435270D-01  0.168497D+00  0.211831D+00 -0.458051D+00 -0.113937D+00
      3   0.548178D-01  0.183770D+00 -0.536594D+00  0.217973D+00  0.520374D+00
      4   0.267785D+00 -0.656787D-01 -0.236459D+00 -0.291292D+00 -0.235236D+00
      5  -0.488611D-02 -0.190272D-01 -0.252574D-01  0.529879D-01  0.110890D-01
      6  -0.881552D-02 -0.221597D-01  0.624034D-01 -0.251501D-01 -0.588737D-01
      7  -0.303250D-01  0.906037D-02  0.276782D-01  0.331923D-01  0.258258D-01
      8   0.236236D+00  0.714312D-01 -0.151008D+00  0.331838D+00  0.267218D+00
      9   0.224278D+00  0.124162D+00 -0.129086D+00 -0.623836D+00  0.401516D+00
     10   0.480136D+00 -0.346051D-01 -0.206749D+00 -0.409541D+00 -0.386903D+00
     11   0.679588D-01  0.162063D+00 -0.222164D+00 -0.150241D+00  0.260582D+00
     12   0.275327D+00 -0.645560D-02 -0.119754D+00 -0.450862D+00 -0.213300D+00
     13  -0.217563D+00 -0.103964D+00  0.209615D+00  0.397269D+00 -0.739725D-01
     14  -0.323622D-01  0.136047D-01  0.733397D-01 -0.163619D-01  0.336351D-01
     15   0.197078D+00  0.413769D-01 -0.168225D+00 -0.995186D-02  0.196331D+00
     16  -0.544616D-01  0.816929D-01 -0.103152D+00 -0.202510D-02  0.147125D+00
                51            52            53            54            55 
      1  -0.359268D+04 -0.359268D+04 -0.359268D+04 -0.359268D+04 -0.359268D+04
      2  -0.292853D+00  0.209370D+00 -0.325139D+00  0.280542D+00 -0.945726D+00
      3   0.122734D+00 -0.256182D+00  0.238962D+00 -0.142527D-01 -0.598562D-01
      4   0.833505D-01 -0.271708D+00 -0.131833D+00 -0.220073D+00  0.803534D+00
      5   0.345617D-01 -0.227881D-01  0.383238D-01 -0.322048D-01  0.109658D+00
      6  -0.148933D-01  0.291984D-01 -0.258471D-01  0.671448D-03  0.844509D-02
      7  -0.980524D-02  0.329558D-01  0.156211D-01  0.256825D-01 -0.942890D-01
      8  -0.141337D-01  0.524395D-02  0.257201D+00 -0.502142D-01  0.476118D-01
      9  -0.920070D-01 -0.646051D-01 -0.359363D+00  0.184738D+00 -0.503187D+00
     10   0.625390D-01  0.135959D-01 -0.283122D+00  0.101725D+00 -0.541374D-01
     11  -0.127244D+00 -0.635923D-01 -0.192576D+00  0.231266D+00 -0.668005D+00
     12  -0.114017D-01 -0.117632D+00 -0.260980D+00  0.246528D-01  0.464292D-01
     13   0.319454D-01  0.100725D+00  0.295275D+00 -0.161843D+00  0.350127D+00
     14  -0.810107D-01  0.218630D-01  0.108328D-01 -0.811337D-03 -0.470996D-01
     15  -0.941938D-01 -0.214675D-01 -0.123000D-01  0.186433D-01 -0.779597D-01
     16   0.625422D-01 -0.601059D-01  0.277703D-01  0.459861D-01 -0.155746D+00
                56            57            58            59            60 
      1  -0.359268D+04 -0.359268D+04 -0.359268D+04 -0.359268D+04 -0.359268D+04
      2  -0.709862D+00 -0.610814D+00  0.414231D+00  0.573500D+00 -0.942363D-01
      3  -0.733734D-01  0.456503D+00  0.121812D+00 -0.559101D+00 -0.100721D+00
      4   0.620968D+00 -0.841046D-01 -0.226267D+00  0.296452D+00  0.219485D+00
      5   0.820551D-01  0.726412D-01 -0.524340D-01 -0.661834D-01  0.116467D-01
      6   0.103187D-01 -0.554897D-01 -0.144704D-01  0.670872D-01  0.948984D-02
      7  -0.721622D-01  0.110408D-01  0.269417D-01 -0.339743D-01 -0.267928D-01
      8  -0.160649D+00  0.309138D+00  0.925090D-02 -0.228826D+00 -0.135856D+00
      9  -0.496542D-01  0.611786D-01  0.882335D-01  0.425295D+00 -0.196487D+00
     10   0.364256D+00 -0.359428D+00  0.179363D+00  0.240801D+00  0.271787D-01
     11  -0.225946D+00  0.525463D-01 -0.181599D+00 -0.195205D+00 -0.358897D+00
     12   0.199710D+00 -0.234763D+00  0.874073D-01  0.444435D+00  0.427528D+00
     13  -0.963342D-01  0.763200D-01 -0.643893D-01 -0.161224D+00  0.323083D-01
     14  -0.943608D-01 -0.120175D+00 -0.138735D-01  0.505990D-01 -0.905883D-01
     15   0.282341D-01  0.115952D+00 -0.131117D+00 -0.126272D+00 -0.331649D-01
     16  -0.700160D-01  0.514098D-01  0.849678D-01 -0.121529D+00  0.425908D-01
 Unable to Open any file for archive entry.
 1\1\GINC-X1000C0S2B0N1\SP\RB97D3 TD-FC\Gen\C36H27Fe1N9O6(2+)\PNG4RJV\1
 8-Oct-2023\0\\#p B97D3 chkbasis geom=allcheck Guess=Read int=ultrafine
  scrf=(SMD,solvent=Acetonitrile) td=(NStates=60)\\Title\\2,1\Fe,0,-0.1
 879901478,1.055975419,-0.1713793394\N,0,-0.4627430875,2.9575374384,-0.
 5370564525\C,0,0.4374291895,3.7833875703,0.0879030001\C,0,-1.364159854
 4,3.5013651501,-1.3756650242\C,0,0.4197992512,5.175576528,-0.085860277
 \C,0,-1.4341794153,4.8832710439,-1.5958662753\H,0,-2.0432017287,2.8167
 725763,-1.8885582973\C,0,-0.5370586119,5.7369531496,-0.9383809455\H,0,
 1.1576177094,5.7896014566,0.4398307151\H,0,-2.1912285318,5.273539221,-
 2.2833483752\H,0,-0.5764546642,6.8198135514,-1.0959777625\C,0,1.387333
 3339,3.0718187094,0.9095422128\H,0,2.1577792736,3.597526969,1.48829544
 34\N,0,1.2803834924,1.7691291877,0.9112816986\C,0,2.2285705067,0.98613
 99225,1.6264432673\C,0,3.605765671,1.0951460861,1.3426501064\C,0,1.782
 1952418,0.0538578398,2.5744777133\C,0,4.524440994,0.2449115028,1.97464
 469\H,0,3.9511228505,1.823579239,0.6030368791\C,0,2.7196304886,-0.7820
 260149,3.1837753646\H,0,0.7344206305,-0.0115690512,2.8582961136\C,0,4.
 0900323077,-0.7137422163,2.8967506284\H,0,5.5884729453,0.3211624518,1.
 7282776675\N,0,-1.3269054375,0.97100048,1.4142148014\C,0,-1.5797544006
 ,-0.3058333491,1.8500090931\C,0,-1.9014977494,2.0016113057,2.058942744
 \C,0,-2.4578395533,-0.5709244451,2.9099028842\C,0,-2.7780631049,1.8066
 638236,3.1348571592\H,0,-1.6765168044,3.0072372341,1.6948609827\C,0,-3
 .0750771614,0.5046158841,3.5592769028\H,0,-2.6335504905,-1.6078219726,
 3.2115777008\H,0,-3.2261344789,2.6793549691,3.6199179904\H,0,-3.769270
 74,0.3302744153,4.3877836016\C,0,-0.8162425911,-1.3149869115,1.1525697
 335\H,0,-0.9044756521,-2.3766176607,1.4158555624\N,0,0.0224936854,-0.8
 770097441,0.2510064518\C,0,0.7882216249,-1.7893367126,-0.5195194351\C,
 0,0.1986216113,-2.933267503,-1.0983059099\C,0,2.1425450592,-1.50815705
 24,-0.7590744118\C,0,0.9586898522,-3.779512418,-1.9183201014\H,0,-0.85
 8746358,-3.1486980512,-0.9225924265\C,0,2.8719469269,-2.3648442016,-1.
 5835323411\H,0,2.628266881,-0.6470247029,-0.3068096813\C,0,2.305967482
 6,-3.501708263,-2.1774730634\H,0,0.4874786305,-4.6581470076,-2.3713694
 047\N,0,0.8277389712,0.949862389,-1.8548189593\C,0,0.127637232,0.38889
 08218,-2.8915751191\C,0,2.0992872321,1.3287922213,-2.0712110921\C,0,0.
 7133785226,0.1388327501,-4.1412118624\C,0,2.7459515906,1.1123586276,-3
 .2954163676\H,0,2.6286086372,1.803622657,-1.2441430464\C,0,2.052577942
 6,0.4930105586,-4.342981511\H,0,0.1138117263,-0.3281109144,-4.92857975
 52\H,0,3.7895507787,1.421467414,-3.4055220936\H,0,2.5423353813,0.29880
 80125,-5.3028583605\C,0,-1.2466032625,0.0865720916,-2.5653976129\H,0,-
 1.9178148669,-0.3826717763,-3.2967360104\N,0,-1.6392169965,0.409598088
 5,-1.3639708424\C,0,-2.9212344975,0.0140024772,-0.8998163903\C,0,-3.27
 95687392,-1.3415692608,-0.967421506\C,0,-3.7847788656,0.941267564,-0.2
 812395702\C,0,-4.4863801706,-1.7472840692,-0.389153371\H,0,-2.62083998
 84,-2.0714804966,-1.4380251617\C,0,-4.9919073773,0.5071732177,0.277693
 5296\H,0,-3.5090482812,1.996659705,-0.2371175674\C,0,-5.3529540542,-0.
 8472165904,0.2414764047\H,0,-5.6551930653,1.2326683579,0.7598391227\N,
 0,-4.8327773611,-3.1884184955,-0.4258253044\O,0,-4.0112632176,-3.96336
 78384,-0.9107419557\O,0,-5.9190280659,-3.5276747343,0.0329556146\N,0,4
 .2896764906,-2.028258419,-1.8572248604\O,0,4.9410350285,-2.8071003506,
 -2.5459961707\O,0,4.7320795145,-0.9826789387,-1.385632252\N,0,2.228778
 2785,-1.7900496455,4.1548590842\O,0,1.0130250224,-1.9076983936,4.29363
 28004\O,0,3.062764275,-2.4565952,4.7592688863\H,0,-6.2810689647,-1.204
 4262209,0.6940143217\H,0,2.9084515675,-4.1404721824,-2.8276983365\H,0,
 4.7883335064,-1.3976202736,3.3849207312\\Version=AS64L-G16RevC.02\Stat
 e=1-A\HF=-3592.8027808\RMSD=4.674e-09\PG=C01 [X(C36H27Fe1N9O6)]\\@
 The archive entry for this job was punched.


 THE SECRET OF SUCCESS IN LIFE IS TO EAT WHAT YOU LIKE, AND LET THE FOOD
 FIGHT IT OUT INSIDE YOU. -- FROM A FORTUNE COOKIE
 Job cpu time:       0 days 16 hours 39 minutes 52.9 seconds.
 Elapsed time:       0 days  1 hours 26 minutes 37.7 seconds.
 File lengths (MBytes):  RWF=  16497 Int=      0 D2E=      0 Chk=   1628 Scr=      1
 Normal termination of Gaussian 16 at Wed Oct 18 18:51:10 2023.
