
                                 *****************
                                 * O   R   C   A *
                                 *****************

                                            #,                                       
                                            ###                                      
                                            ####                                     
                                            #####                                    
                                            ######                                   
                                           ########,                                 
                                     ,,################,,,,,                         
                               ,,#################################,,                 
                          ,,##########################################,,             
                       ,#########################################, ''#####,          
                    ,#############################################,,   '####,        
                  ,##################################################,,,,####,       
                ,###########''''           ''''###############################       
              ,#####''   ,,,,##########,,,,          '''####'''          '####       
            ,##' ,,,,###########################,,,                        '##       
           ' ,,###''''                  '''############,,,                           
         ,,##''                                '''############,,,,        ,,,,,,###''
      ,#''                                            '''#######################'''  
     '                                                          ''''####''''         
             ,#######,   #######,   ,#######,      ##                                
            ,#'     '#,  ##    ##  ,#'     '#,    #''#        ######   ,####,        
            ##       ##  ##   ,#'  ##            #'  '#       #        #'  '#        
            ##       ##  #######   ##           ,######,      #####,   #    #        
            '#,     ,#'  ##    ##  '#,     ,#' ,#      #,         ##   #,  ,#        
             '#######'   ##     ##  '#######'  #'      '#     #####' # '####'        



                  #######################################################
                  #                        -***-                        #
                  #          Department of theory and spectroscopy      #
                  #    Directorship and core code : Frank Neese         #
                  #        Max Planck Institute fuer Kohlenforschung    #
                  #                Kaiser Wilhelm Platz 1               #
                  #                 D-45470 Muelheim/Ruhr               #
                  #                      Germany                        #
                  #                                                     #
                  #                  All rights reserved                #
                  #                        -***-                        #
                  #######################################################


                         Program Version 5.0.4 -  RELEASE  -


 With contributions from (in alphabetic order):
   Daniel Aravena         : Magnetic Suceptibility
   Michael Atanasov       : Ab Initio Ligand Field Theory (pilot matlab implementation)
   Alexander A. Auer      : GIAO ZORA, VPT2 properties, NMR spectrum
   Ute Becker             : Parallelization
   Giovanni Bistoni       : ED, misc. LED, open-shell LED, HFLD
   Martin Brehm           : Molecular dynamics
   Dmytro Bykov           : SCF Hessian
   Vijay G. Chilkuri      : MRCI spin determinant printing, contributions to CSF-ICE
   Dipayan Datta          : RHF DLPNO-CCSD density
   Achintya Kumar Dutta   : EOM-CC, STEOM-CC
   Dmitry Ganyushin       : Spin-Orbit,Spin-Spin,Magnetic field MRCI
   Miquel Garcia          : C-PCM and meta-GGA Hessian, CC/C-PCM, Gaussian charge scheme
   Yang Guo               : DLPNO-NEVPT2, F12-NEVPT2, CIM, IAO-localization
   Andreas Hansen         : Spin unrestricted coupled pair/coupled cluster methods
   Benjamin Helmich-Paris : MC-RPA, TRAH-SCF, COSX integrals
   Lee Huntington         : MR-EOM, pCC
   Robert Izsak           : Overlap fitted RIJCOSX, COSX-SCS-MP3, EOM
   Marcus Kettner         : VPT2
   Christian Kollmar      : KDIIS, OOCD, Brueckner-CCSD(T), CCSD density, CASPT2, CASPT2-K
   Simone Kossmann        : Meta GGA functionals, TD-DFT gradient, OOMP2, MP2 Hessian
   Martin Krupicka        : Initial AUTO-CI
   Lucas Lang             : DCDCAS
   Marvin Lechner         : AUTO-CI (C++ implementation), FIC-MRCC
   Dagmar Lenk            : GEPOL surface, SMD
   Dimitrios Liakos       : Extrapolation schemes; Compound Job, initial MDCI parallelization
   Dimitrios Manganas     : Further ROCIS development; embedding schemes
   Dimitrios Pantazis     : SARC Basis sets
   Anastasios Papadopoulos: AUTO-CI, single reference methods and gradients
   Taras Petrenko         : DFT Hessian,TD-DFT gradient, ASA, ECA, R-Raman, ABS, FL, XAS/XES, NRVS
   Peter Pinski           : DLPNO-MP2, DLPNO-MP2 Gradient
   Christoph Reimann      : Effective Core Potentials
   Marius Retegan         : Local ZFS, SOC
   Christoph Riplinger    : Optimizer, TS searches, QM/MM, DLPNO-CCSD(T), (RO)-DLPNO pert. Triples
   Tobias Risthaus        : Range-separated hybrids, TD-DFT gradient, RPA, STAB
   Michael Roemelt        : Original ROCIS implementation
   Masaaki Saitow         : Open-shell DLPNO-CCSD energy and density
   Barbara Sandhoefer     : DKH picture change effects
   Avijit Sen             : IP-ROCIS
   Kantharuban Sivalingam : CASSCF convergence, NEVPT2, FIC-MRCI
   Bernardo de Souza      : ESD, SOC TD-DFT
   Georgi Stoychev        : AutoAux, RI-MP2 NMR, DLPNO-MP2 response
   Willem Van den Heuvel  : Paramagnetic NMR
   Boris Wezisla          : Elementary symmetry handling
   Frank Wennmohs         : Technical directorship


 We gratefully acknowledge several colleagues who have allowed us to
 interface, adapt or use parts of their codes:
   Stefan Grimme, W. Hujo, H. Kruse, P. Pracht,  : VdW corrections, initial TS optimization,
                  C. Bannwarth, S. Ehlert          DFT functionals, gCP, sTDA/sTD-DF
   Ed Valeev, F. Pavosevic, A. Kumar             : LibInt (2-el integral package), F12 methods
   Garnet Chan, S. Sharma, J. Yang, R. Olivares  : DMRG
   Ulf Ekstrom                                   : XCFun DFT Library
   Mihaly Kallay                                 : mrcc  (arbitrary order and MRCC methods)
   Jiri Pittner, Ondrej Demel                    : Mk-CCSD
   Frank Weinhold                                : gennbo (NPA and NBO analysis)
   Christopher J. Cramer and Donald G. Truhlar   : smd solvation model
   Lars Goerigk                                  : TD-DFT with DH, B97 family of functionals
   V. Asgeirsson, H. Jonsson                     : NEB implementation
   FAccTs GmbH                                   : IRC, NEB, NEB-TS, DLPNO-Multilevel, CI-OPT
                                                   MM, QMMM, 2- and 3-layer-ONIOM, Crystal-QMMM,
                                                   LR-CPCM, SF, NACMEs, symmetry and pop. for TD-DFT,
                                                   nearIR, NL-DFT gradient (VV10), updates on ESD,
                                                   ML-optimized integration grids
   S Lehtola, MJT Oliveira, MAL Marques          : LibXC Library
   Liviu Ungur et al                             : ANISO software


 Your calculation uses the libint2 library for the computation of 2-el integrals
 For citations please refer to: http://libint.valeyev.net

 Your ORCA version has been built with support for libXC version: 5.1.0
 For citations please refer to: https://tddft.org/programs/libxc/

 This ORCA versions uses:
   CBLAS   interface :  Fast vector & matrix operations
   LAPACKE interface :  Fast linear algebra routines
   SCALAPACK package :  Parallel linear algebra routines
   Shared memory     :  Shared parallel matrices
   BLAS/LAPACK       :  OpenBLAS 0.3.15  USE64BITINT DYNAMIC_ARCH NO_AFFINITY Zen SINGLE_THREADED
        Core in use  :  Zen
   Copyright (c) 2011-2014, The OpenBLAS Project


Your calculation utilizes the SMD solvation module
Please cite in your paper:
A.V. Marenich, C.J. Cramer, D.G. Truhlar J. Phys. Chem. B, 113, (2009), 6378 

================================================================================

----- Orbital basis set information -----
Your calculation utilizes the basis: def2-SVP
   F. Weigend and R. Ahlrichs, Phys. Chem. Chem. Phys. 7, 3297 (2005).

----- AuxJ basis set information -----
Your calculation utilizes the auxiliary basis: def2/J
   F. Weigend, Phys. Chem. Chem. Phys. 8, 1057 (2006).

----- AuxC basis set information -----
Your calculation utilizes the auxiliary basis: def2-SVP/C
  H-La, Hf-Rn : A. Hellweg, C. Hattig, S. Hofener and W. Klopper, Theor. Chem. Acc. 117, 587 (2007).
        Ce-Lu : J. Chmela and M. E. Harding, Mol. Phys. (2018).

================================================================================
                                        WARNINGS
                       Please study these warnings very carefully!
================================================================================

INFO   : Checking CIS options ...
  ===> : (D) CORRECTION FOUND - SETTING MODE=3
  ===> : JK MODE FOUND - ACTIVATING RI-MP2 CODE
  ===> : MP2 AND CIS FOUND - CHECKING
WARNING: CIS(D) and MP2 runs must have the same orbital window
  ===> : adjusting orbital windows

WARNING: No MP2 level density has been requested!
         To caclulate MP2 level properties use
         %mp2 Density relaxed end
         or
         %mp2 Density unrelaxed end
         Otherwise for double-hybrid DFT only the energy is correct!

WARNING: The frozen-core approximation is turned on by default for 
         the MP2 part of double-hybrid DFT.

WARNING: CIS/ROCIS methods need fully converged wavefunctions
  ===> : Setting SCFConvForced true
         You can overwrite this default with %scf ConvForced false 


INFO   : the flag for use of the SHARK integral package has been found!

================================================================================
                                       INPUT FILE
================================================================================
NAME = FeC_4_B2PLYP_def2SVP.inp
|  1> %maxcore 12000
|  2> %pal
|  3>  nprocs 8
|  4> end
|  5> ! RI-B2PLYP def2-SVP def2/J def2-SVP/C RIJCOSX CPCM TIGHTSCF
|  6> 
|  7> %TDDFT 
|  8>     DCORR      4
|  9>     NROOTS    40
| 10>     TDA       FALSE
| 11> END
| 12> 
| 13> %CPCM
| 14>     SMD		TRUE
| 15>     SMDsolvent	"Acetonitrile"
| 16> END
| 17> 
| 18> * xyz 2 1
| 19> Fe                 -0.18443400    1.05691900   -0.14483500
| 20> N                  -0.45141900    2.99521900   -0.51342800
| 21> C                   0.48875800    3.80074400    0.05491000
| 22> C                  -1.38066200    3.55541600   -1.29519600
| 23> C                   0.49530100    5.18331200   -0.12762900
| 24> C                  -1.43442300    4.92992000   -1.52113800
| 25> H                  -2.10511800    2.88586000   -1.76305900
| 26> C                  -0.48754000    5.75915300   -0.92641900
| 27> H                   1.27031500    5.78119000    0.35371800
| 28> H                  -2.21816900    5.33257700   -2.16348500
| 29> H                  -0.51008600    6.83790200   -1.08791400
| 30> C                   1.46140400    3.09144700    0.84730000
| 31> H                   2.26188000    3.62966500    1.36849700
| 32> N                   1.33638300    1.80241100    0.91333600
| 33> C                   2.29050700    1.04157900    1.62714400
| 34> C                   3.66315200    1.17422700    1.37216200
| 35> C                   1.84596700    0.10026600    2.55565900
| 36> C                   4.57942500    0.34976700    2.02358400
| 37> H                   4.00823500    1.90821400    0.63949100
| 38> C                   2.78161900   -0.70471400    3.19014400
| 39> H                   0.79323300    0.01225100    2.81133700
| 40> C                   4.14862900   -0.60608500    2.93808700
| 41> H                   5.64353000    0.44781300    1.80260000
| 42> N                  -1.32476600    0.96618500    1.48234400
| 43> C                  -1.56743300   -0.30234200    1.92027300
| 44> C                  -1.88841100    1.98586900    2.13884100
| 45> C                  -2.40609600   -0.57017800    3.00180400
| 46> C                  -2.73129700    1.79150000    3.23227200
| 47> H                  -1.67211800    2.99266600    1.77372800
| 48> C                  -3.00388100    0.49664000    3.66607600
| 49> H                  -2.56573800   -1.60472800    3.30990800
| 50> H                  -3.16668900    2.65900500    3.72905200
| 51> H                  -3.66535200    0.32094800    4.51580900
| 52> C                  -0.83074800   -1.31854000    1.20957900
| 53> H                  -0.94168900   -2.37678500    1.47707100
| 54> N                   0.00242500   -0.90857900    0.30272500
| 55> C                   0.74312000   -1.84156600   -0.45301400
| 56> C                   0.16280000   -3.02118600   -0.94520500
| 57> C                   2.07480200   -1.54682700   -0.75558600
| 58> C                   0.90955800   -3.89002200   -1.73903400
| 59> H                  -0.88144700   -3.24938600   -0.71859400
| 60> C                   2.79383000   -2.43305900   -1.54491200
| 61> H                   2.55060700   -0.64546000   -0.37385200
| 62> C                   2.23523100   -3.60471600   -2.05217800
| 63> H                   0.44563600   -4.79854300   -2.12629700
| 64> N                   0.83205700    0.94835200   -1.87323100
| 65> C                   0.11165600    0.42715100   -2.90407500
| 66> C                   2.09989500    1.30326000   -2.10579400
| 67> C                   0.65934300    0.21892800   -4.16979000
| 68> C                   2.71247000    1.12976100   -3.34628600
| 69> H                   2.66106500    1.72529200   -1.26965400
| 70> C                   1.98705400    0.57062300   -4.39383600
| 71> H                   0.03699600   -0.21223300   -4.95508700
| 72> H                   3.75460800    1.42569400   -3.46974400
| 73> H                   2.44566000    0.41557400   -5.37159700
| 74> C                  -1.25175700    0.10325400   -2.56596800
| 75> H                  -1.91300000   -0.36390500   -3.30588600
| 76> N                  -1.64885600    0.39203400   -1.36688900
| 77> C                  -2.92569200   -0.03281600   -0.93609500
| 78> C                  -3.29648600   -1.36885900   -1.10259900
| 79> C                  -3.78790200    0.85562200   -0.27673900
| 80> C                  -4.52099200   -1.78828600   -0.59274400
| 81> H                  -2.63646600   -2.07682600   -1.60392200
| 82> C                  -5.01494900    0.41039800    0.20515400
| 83> H                  -3.49553800    1.89953200   -0.15310500
| 84> C                  -5.39321500   -0.92306900    0.06080400
| 85> H                  -5.68270600    1.11084100    0.70969600
| 86> N                  -4.88931900   -3.20264000   -0.74284500
| 87> O                  -4.06604900   -3.95513900   -1.24191100
| 88> O                  -5.99573500   -3.54547600   -0.35890600
| 89> N                   4.18572600   -2.09597100   -1.87387400
| 90> O                   4.81965600   -2.89403200   -2.54485300
| 91> O                   4.62763200   -1.03328300   -1.46161300
| 92> N                   2.29398000   -1.70752800    4.14661900
| 93> O                   1.08469700   -1.85819300    4.24595200
| 94> O                   3.12335800   -2.33819500    4.78123300
| 95> H                  -6.34131600   -1.29407200    0.44900700
| 96> H                   2.83073200   -4.26658500   -2.68016200
| 97> H                   4.84804100   -1.26766800    3.44830100
| 98> *
| 99> 
|100>                          ****END OF INPUT****
================================================================================

                       ****************************
                       * Single Point Calculation *
                       ****************************

---------------------------------
CARTESIAN COORDINATES (ANGSTROEM)
---------------------------------
  Fe    -0.184434    1.056919   -0.144835
  N     -0.451419    2.995219   -0.513428
  C      0.488758    3.800744    0.054910
  C     -1.380662    3.555416   -1.295196
  C      0.495301    5.183312   -0.127629
  C     -1.434423    4.929920   -1.521138
  H     -2.105118    2.885860   -1.763059
  C     -0.487540    5.759153   -0.926419
  H      1.270315    5.781190    0.353718
  H     -2.218169    5.332577   -2.163485
  H     -0.510086    6.837902   -1.087914
  C      1.461404    3.091447    0.847300
  H      2.261880    3.629665    1.368497
  N      1.336383    1.802411    0.913336
  C      2.290507    1.041579    1.627144
  C      3.663152    1.174227    1.372162
  C      1.845967    0.100266    2.555659
  C      4.579425    0.349767    2.023584
  H      4.008235    1.908214    0.639491
  C      2.781619   -0.704714    3.190144
  H      0.793233    0.012251    2.811337
  C      4.148629   -0.606085    2.938087
  H      5.643530    0.447813    1.802600
  N     -1.324766    0.966185    1.482344
  C     -1.567433   -0.302342    1.920273
  C     -1.888411    1.985869    2.138841
  C     -2.406096   -0.570178    3.001804
  C     -2.731297    1.791500    3.232272
  H     -1.672118    2.992666    1.773728
  C     -3.003881    0.496640    3.666076
  H     -2.565738   -1.604728    3.309908
  H     -3.166689    2.659005    3.729052
  H     -3.665352    0.320948    4.515809
  C     -0.830748   -1.318540    1.209579
  H     -0.941689   -2.376785    1.477071
  N      0.002425   -0.908579    0.302725
  C      0.743120   -1.841566   -0.453014
  C      0.162800   -3.021186   -0.945205
  C      2.074802   -1.546827   -0.755586
  C      0.909558   -3.890022   -1.739034
  H     -0.881447   -3.249386   -0.718594
  C      2.793830   -2.433059   -1.544912
  H      2.550607   -0.645460   -0.373852
  C      2.235231   -3.604716   -2.052178
  H      0.445636   -4.798543   -2.126297
  N      0.832057    0.948352   -1.873231
  C      0.111656    0.427151   -2.904075
  C      2.099895    1.303260   -2.105794
  C      0.659343    0.218928   -4.169790
  C      2.712470    1.129761   -3.346286
  H      2.661065    1.725292   -1.269654
  C      1.987054    0.570623   -4.393836
  H      0.036996   -0.212233   -4.955087
  H      3.754608    1.425694   -3.469744
  H      2.445660    0.415574   -5.371597
  C     -1.251757    0.103254   -2.565968
  H     -1.913000   -0.363905   -3.305886
  N     -1.648856    0.392034   -1.366889
  C     -2.925692   -0.032816   -0.936095
  C     -3.296486   -1.368859   -1.102599
  C     -3.787902    0.855622   -0.276739
  C     -4.520992   -1.788286   -0.592744
  H     -2.636466   -2.076826   -1.603922
  C     -5.014949    0.410398    0.205154
  H     -3.495538    1.899532   -0.153105
  C     -5.393215   -0.923069    0.060804
  H     -5.682706    1.110841    0.709696
  N     -4.889319   -3.202640   -0.742845
  O     -4.066049   -3.955139   -1.241911
  O     -5.995735   -3.545476   -0.358906
  N      4.185726   -2.095971   -1.873874
  O      4.819656   -2.894032   -2.544853
  O      4.627632   -1.033283   -1.461613
  N      2.293980   -1.707528    4.146619
  O      1.084697   -1.858193    4.245952
  O      3.123358   -2.338195    4.781233
  H     -6.341316   -1.294072    0.449007
  H      2.830732   -4.266585   -2.680162
  H      4.848041   -1.267668    3.448301

----------------------------
CARTESIAN COORDINATES (A.U.)
----------------------------
  NO LB      ZA    FRAG     MASS         X           Y           Z
   0 Fe   26.0000    0    55.850   -0.348530    1.997287   -0.273698
   1 N     7.0000    0    14.007   -0.853058    5.660144   -0.970238
   2 C     6.0000    0    12.011    0.923619    7.182365    0.103765
   3 C     6.0000    0    12.011   -2.609073    6.718763   -2.447566
   4 C     6.0000    0    12.011    0.935983    9.795040   -0.241184
   5 C     6.0000    0    12.011   -2.710667    9.316199   -2.874534
   6 H     1.0000    0     1.008   -3.978096    5.453485   -3.331699
   7 C     6.0000    0    12.011   -0.921317   10.883222   -1.750678
   8 H     1.0000    0     1.008    2.400547   10.924866    0.668430
   9 H     1.0000    0     1.008   -4.191732   10.077110   -4.088394
  10 H     1.0000    0     1.008   -0.963923   12.921762   -2.055860
  11 C     6.0000    0    12.011    2.761653    5.841988    1.601165
  12 H     1.0000    0     1.008    4.274334    6.859073    2.586085
  13 N     7.0000    0    14.007    2.525398    3.406063    1.725955
  14 C     6.0000    0    12.011    4.328431    1.968299    3.074857
  15 C     6.0000    0    12.011    6.922354    2.218967    2.593010
  16 C     6.0000    0    12.011    3.488372    0.189475    4.829496
  17 C     6.0000    0    12.011    8.653859    0.660964    3.824020
  18 H     1.0000    0     1.008    7.574466    3.606002    1.208463
  19 C     6.0000    0    12.011    5.256498   -1.331716    6.028498
  20 H     1.0000    0     1.008    1.498993    0.023151    5.312657
  21 C     6.0000    0    12.011    7.839773   -1.145335    5.552180
  22 H     1.0000    0     1.008   10.664726    0.846244    3.406420
  23 N     7.0000    0    14.007   -2.503445    1.825825    2.801224
  24 C     6.0000    0    12.011   -2.962019   -0.571344    3.628790
  25 C     6.0000    0    12.011   -3.568580    3.752749    4.041824
  26 C     6.0000    0    12.011   -4.546862   -1.077480    5.672587
  27 C     6.0000    0    12.011   -5.161403    3.385444    6.108109
  28 H     1.0000    0     1.008   -3.159845    5.655319    3.351860
  29 C     6.0000    0    12.011   -5.676512    0.938514    6.927880
  30 H     1.0000    0     1.008   -4.848542   -3.032496    6.254820
  31 H     1.0000    0     1.008   -5.984175    5.024791    7.046887
  32 H     1.0000    0     1.008   -6.926511    0.606504    8.533642
  33 C     6.0000    0    12.011   -1.569886   -2.491679    2.285773
  34 H     1.0000    0     1.008   -1.779534   -4.491473    2.791260
  35 N     7.0000    0    14.007    0.004583   -1.716965    0.572067
  36 C     6.0000    0    12.011    1.404293   -3.480055   -0.856072
  37 C     6.0000    0    12.011    0.307647   -5.709214   -1.786179
  38 C     6.0000    0    12.011    3.920808   -2.923079   -1.427851
  39 C     6.0000    0    12.011    1.718816   -7.351076   -3.286298
  40 H     1.0000    0     1.008   -1.665693   -6.140450   -1.357946
  41 C     6.0000    0    12.011    5.279574   -4.597815   -2.919461
  42 H     1.0000    0     1.008    4.819949   -1.219743   -0.706478
  43 C     6.0000    0    12.011    4.223974   -6.811926   -3.878054
  44 H     1.0000    0     1.008    0.842130   -9.067932   -4.018119
  45 N     7.0000    0    14.007    1.572360    1.792126   -3.539894
  46 C     6.0000    0    12.011    0.210999    0.807198   -5.487906
  47 C     6.0000    0    12.011    3.968226    2.462804   -3.979374
  48 C     6.0000    0    12.011    1.245978    0.413714   -7.879761
  49 C     6.0000    0    12.011    5.125825    2.134939   -6.323564
  50 H     1.0000    0     1.008    5.028684    3.260329   -2.399298
  51 C     6.0000    0    12.011    3.754988    1.078321   -8.303147
  52 H     1.0000    0     1.008    0.069912   -0.401062   -9.363757
  53 H     1.0000    0     1.008    7.095181    2.694171   -6.556866
  54 H     1.0000    0     1.008    4.621628    0.785321  -10.150847
  55 C     6.0000    0    12.011   -2.365478    0.195122   -4.848977
  56 H     1.0000    0     1.008   -3.615046   -0.687681   -6.247219
  57 N     7.0000    0    14.007   -3.115886    0.740837   -2.583046
  58 C     6.0000    0    12.011   -5.528757   -0.062013   -1.768963
  59 C     6.0000    0    12.011   -6.229456   -2.586769   -2.083610
  60 C     6.0000    0    12.011   -7.158097    1.616891   -0.522961
  61 C     6.0000    0    12.011   -8.543437   -3.379371   -1.120124
  62 H     1.0000    0     1.008   -4.982199   -3.924632   -3.030973
  63 C     6.0000    0    12.011   -9.476880    0.775540    0.387685
  64 H     1.0000    0     1.008   -6.605610    3.589595   -0.289327
  65 C     6.0000    0    12.011  -10.191699   -1.744348    0.114903
  66 H     1.0000    0     1.008  -10.738758    2.099185    1.341131
  67 N     7.0000    0    14.007   -9.239474   -6.052113   -1.403774
  68 O     8.0000    0    15.999   -7.683719   -7.474130   -2.346872
  69 O     8.0000    0    15.999  -11.330297   -6.699979   -0.678234
  70 N     7.0000    0    14.007    7.909876   -3.960811   -3.541109
  71 O     8.0000    0    15.999    9.107830   -5.468928   -4.809075
  72 O     8.0000    0    15.999    8.744957   -1.952622   -2.762048
  73 N     7.0000    0    14.007    4.334994   -3.226760    7.835974
  74 O     8.0000    0    15.999    2.049780   -3.511476    8.023686
  75 O     8.0000    0    15.999    5.902291   -4.418548    9.035221
  76 H     1.0000    0     1.008  -11.983351   -2.445442    0.848500
  77 H     1.0000    0     1.008    5.349308   -8.062677   -5.064772
  78 H     1.0000    0     1.008    9.161470   -2.395545    6.516345

--------------------------------
INTERNAL COORDINATES (ANGSTROEM)
--------------------------------
 Fe     0   0   0     0.000000000000     0.00000000     0.00000000
 N      1   0   0     1.991016996380     0.00000000     0.00000000
 C      2   1   0     1.362281688638   113.94562936     0.00000000
 C      2   1   3     1.337338565092   127.53122448   175.98470503
 C      3   2   1     1.394581504249   122.33323663   177.80794563
 C      4   2   1     1.393987546035   122.31552111   182.73968017
 H      4   2   1     1.091804707739   117.04385136     2.39713569
 C      5   3   2     1.391270912749   118.82699135   359.52156505
 H      5   3   2     1.090779417430   119.27297124   179.81096839
 H      6   4   2     1.090412821171   119.16392518   180.36261754
 H      8   5   3     1.091003374029   120.58610804   179.94087574
 C      3   2   1     1.441188532991   113.83719208   357.96600036
 H     12   3   2     1.096397170239   120.83073834   180.87232192
 N     12   3   2     1.296767061979   116.88231919     0.60059344
 C     14  12   3     1.413767944347   119.70911110   177.31580922
 C     15  14  12     1.402414207092   121.18839366   307.69155494
 C     15  14  12     1.394928700971   118.95750615   130.68883139
 C     16  15  14     1.394145302403   120.15812053   184.33740015
 H     16  15  14     1.092989472639   119.63140229     2.63592189
 C     17  15  14     1.387807148248   118.74290828   175.85326444
 H     17  15  14     1.086906966886   121.32476948   353.77021318
 C     18  16  15     1.391241882826   120.65935745   359.58275597
 H     18  16  15     1.091222432594   119.54703571   178.76396802
 N      1   2   3     1.989045305422    96.83320459    92.08752889
 C     24   1   2     1.363755781531   114.02557239   169.85201358
 C     24   1   2     1.337325486518   127.47704949   352.01541697
 C     25  24   1     1.394561240830   122.32329972   183.63488324
 C     26  24   1     1.394212131965   122.24255885   176.44968421
 H     26  24   1     1.092579683056   117.07332182   357.25889204
 C     27  25  24     1.391655431971   118.76886952   359.25960667
 H     27  25  24     1.091195374569   119.27786864   179.96312964
 H     28  26  24     1.090376763825   119.19620424   180.19045822
 H     30  27  25     1.091080993325   120.57838680   179.98945710
 C     25  24   1     1.442376208229   113.96815421     6.55406213
 H     34  25  24     1.097151929119   120.51556966   179.74208233
 N     34  25  24     1.297932758954   116.71736348     3.09150270
 C     36  34  25     1.410756981664   120.16091196   181.13940012
 C     37  36  34     1.403754475427   121.77064821    41.52010220
 C     37  36  34     1.397067586922   118.48693122   219.04580976
 C     38  37  36     1.393803424698   120.13447947   177.09641611
 H     38  37  36     1.092647968163   119.85974371   358.11190994
 C     39  37  36     1.387603674283   118.84119920   182.62902893
 H     39  37  36     1.088381235354   121.02857142     3.29248405
 C     40  38  37     1.391713900664   120.71088621     0.12592095
 H     40  38  37     1.091149238507   119.56225142   180.71260342
 N      1   2   3     2.008082040004    87.77458535   266.39235012
 C     46   1   2     1.361347654179   113.86506936   258.81324813
 C     46   1   2     1.336958649950   127.98091651    79.79268016
 C     47  46   1     1.394758878417   122.44734648   182.72652167
 C     48  46   1     1.394335123164   122.57091841   177.41510652
 H     48  46   1     1.091857535361   117.17982816   358.60879474
 C     50  48  46     1.391482906327   119.38872350     0.21332598
 H     49  47  46     1.090828572480   119.22752275   179.33779366
 H     50  48  46     1.090353075520   119.13485725   180.90366868
 H     52  50  48     1.091043642004   120.83954282   180.57179266
 C     47  46   1     1.441568804680   114.13662961     2.21953628
 H     56  47  46     1.096794640329   120.50907780   182.70656210
 N     56  47  46     1.295712912817   117.18266560     2.95688150
 C     58  56  47     1.412937070018   119.47801055   186.79973583
 C     59  58  56     1.396503730858   119.42315303    50.34128543
 C     59  58  56     1.402668349497   120.55414498   226.67109740
 C     60  59  58     1.391145597481   118.58472597   175.78753890
 H     60  59  58     1.090031386621   121.02667025   356.92680603
 C     61  59  58     1.391434372809   120.14576145   183.32964223
 H     61  59  58     1.091105019030   119.64011258     3.96011627
 C     62  60  59     1.391581261415   122.43712072     0.78577137
 H     64  61  59     1.091367232907   119.62461484   180.49655754
 N     62  60  59     1.469214867351   118.25932290   181.47710801
 O     68  62  60     1.221922710427   117.75271619     4.06199197
 O     68  62  60     1.220287688897   117.75003016   183.96658023
 N     42  39  37     1.469428049278   118.14290797   178.90925672
 O     71  42  39     1.220238264874   117.72123499   178.48917595
 O     71  42  39     1.222516188155   117.79537044   358.19342833
 N     20  17  15     1.469105897661   118.02159670   181.10936281
 O     74  20  17     1.222674266190   117.72973027     6.21583788
 O     74  20  17     1.219976909933   117.76761749   185.78678609
 H     66  62  60     1.089605571489   120.06675211   180.26368987
 H     44  40  38     1.089520958228   121.72133766   180.68442712
 H     22  18  16     1.089581358793   121.74961029   179.25450092

---------------------------
INTERNAL COORDINATES (A.U.)
---------------------------
 Fe     0   0   0     0.000000000000     0.00000000     0.00000000
 N      1   0   0     3.762476851141     0.00000000     0.00000000
 C      2   1   0     2.574339308781   113.94562936     0.00000000
 C      2   1   3     2.527203636355   127.53122448   175.98470503
 C      3   2   1     2.635377114463   122.33323663   177.80794563
 C      4   2   1     2.634254696103   122.31552111   182.73968017
 H      4   2   1     2.063211889353   117.04385136     2.39713569
 C      5   3   2     2.629121003187   118.82699135   359.52156505
 H      5   3   2     2.061274371461   119.27297124   179.81096839
 H      6   4   2     2.060581604930   119.16392518   180.36261754
 H      8   5   3     2.061697588098   120.58610804   179.94087574
 C      3   2   1     2.723451634701   113.83719208   357.96600036
 H     12   3   2     2.071890385759   120.83073834   180.87232192
 N     12   3   2     2.450534606630   116.88231919     0.60059344
 C     14  12   3     2.671634231733   119.70911110   177.31580922
 C     15  14  12     2.650178777724   121.18839366   307.69155494
 C     15  14  12     2.636033221183   118.95750615   130.68883139
 C     16  15  14     2.634552812435   120.15812053   184.33740015
 H     16  15  14     2.065450770546   119.63140229     2.63592189
 C     17  15  14     2.622575436887   118.74290828   175.85326444
 H     17  15  14     2.053956500465   121.32476948   353.77021318
 C     18  16  15     2.629066144582   120.65935745   359.58275597
 H     18  16  15     2.062111548795   119.54703571   178.76396802
 N      1   2   3     3.758750895209    96.83320459    92.08752889
 C     24   1   2     2.577124940645   114.02557239   169.85201358
 C     24   1   2     2.527178921432   127.47704949   352.01541697
 C     25  24   1     2.635338822151   122.32329972   183.63488324
 C     26  24   1     2.634679102004   122.24255885   176.44968421
 H     26  24   1     2.064676380463   117.07332182   357.25889204
 C     27  25  24     2.629847639208   118.76886952   359.25960667
 H     27  25  24     2.062060416536   119.27786864   179.96312964
 H     28  26  24     2.060513466420   119.19620424   180.19045822
 H     30  27  25     2.061844267310   120.57838680   179.98945710
 C     25  24   1     2.725696015637   113.96815421     6.55406213
 H     34  25  24     2.073316673339   120.51556966   179.74208233
 N     34  25  24     2.452737454668   116.71736348     3.09150270
 C     36  34  25     2.665944336863   120.16091196   181.13940012
 C     37  36  34     2.652711517823   121.77064821    41.52010220
 C     37  36  34     2.640075129861   118.48693122   219.04580976
 C     38  37  36     2.633906757202   120.13447947   177.09641611
 H     38  37  36     2.064805420613   119.85974371   358.11190994
 C     39  37  36     2.622190926818   118.84119920   182.62902893
 H     39  37  36     2.056742464117   121.02857142     3.29248405
 C     40  38  37     2.629958129026   120.71088621     0.12592095
 H     40  38  37     2.061973232015   119.56225142   180.71260342
 N      1   2   3     3.794725110053    87.77458535   266.39235012
 C     46   1   2     2.572574239454   113.86506936   258.81324813
 C     46   1   2     2.526485700783   127.98091651    79.79268016
 C     47  46   1     2.635712303063   122.44734648   182.72652167
 C     48  46   1     2.634911521688   122.57091841   177.41510652
 H     48  46   1     2.063311719090   117.17982816   358.60879474
 C     50  48  46     2.629521612991   119.38872350     0.21332598
 H     49  47  46     2.061367261044   119.22752275   179.33779366
 H     50  48  46     2.060468702012   119.13485725   180.90366868
 H     52  50  48     2.061773683544   120.83954282   180.57179266
 C     47  46   1     2.724170244050   114.13662961     2.21953628
 H     56  47  46     2.072641495374   120.50907780   182.70656210
 N     56  47  46     2.448542553410   117.18266560     2.95688150
 C     58  56  47     2.670064106800   119.47801055   186.79973583
 C     59  58  56     2.639009596321   119.42315303    50.34128543
 C     59  58  56     2.650659037268   120.55414498   226.67109740
 C     60  59  58     2.628884191649   118.58472597   175.78753890
 H     60  59  58     2.059860798091   121.02667025   356.92680603
 C     61  59  58     2.629429897933   120.14576145   183.32964223
 H     61  59  58     2.061889669313   119.64011258     3.96011627
 C     62  60  59     2.629707477171   122.43712072     0.78577137
 H     64  61  59     2.062385181729   119.62461484   180.49655754
 N     62  60  59     2.776413731179   118.25932290   181.47710801
 O     68  62  60     2.309099279526   117.75271619     4.06199197
 O     68  62  60     2.306009536611   117.75003016   183.96658023
 N     42  39  37     2.776816586637   118.14290797   178.90925672
 O     71  42  39     2.305916138743   117.72123499   178.48917595
 O     71  42  39     2.310220789898   117.79537044   358.19342833
 N     20  17  15     2.776207808308   118.02159670   181.10936281
 O     74  20  17     2.310519514092   117.72973027     6.21583788
 O     74  20  17     2.305422249480   117.76761749   185.78678609
 H     66  62  60     2.059056124108   120.06675211   180.26368987
 H     44  40  38     2.058896228218   121.72133766   180.68442712
 H     22  18  16     2.059010368744   121.74961029   179.25450092

---------------------
BASIS SET INFORMATION
---------------------
There are 5 groups of distinct atoms

 Group   1 Type Fe  : 14s9p5d1f contracted to 5s3p2d1f pattern {63311/531/41/1}
 Group   2 Type N   : 7s4p1d contracted to 3s2p1d pattern {511/31/1}
 Group   3 Type C   : 7s4p1d contracted to 3s2p1d pattern {511/31/1}
 Group   4 Type H   : 4s1p contracted to 2s1p pattern {31/1}
 Group   5 Type O   : 7s4p1d contracted to 3s2p1d pattern {511/31/1}

Atom   0Fe   basis set group =>   1
Atom   1N    basis set group =>   2
Atom   2C    basis set group =>   3
Atom   3C    basis set group =>   3
Atom   4C    basis set group =>   3
Atom   5C    basis set group =>   3
Atom   6H    basis set group =>   4
Atom   7C    basis set group =>   3
Atom   8H    basis set group =>   4
Atom   9H    basis set group =>   4
Atom  10H    basis set group =>   4
Atom  11C    basis set group =>   3
Atom  12H    basis set group =>   4
Atom  13N    basis set group =>   2
Atom  14C    basis set group =>   3
Atom  15C    basis set group =>   3
Atom  16C    basis set group =>   3
Atom  17C    basis set group =>   3
Atom  18H    basis set group =>   4
Atom  19C    basis set group =>   3
Atom  20H    basis set group =>   4
Atom  21C    basis set group =>   3
Atom  22H    basis set group =>   4
Atom  23N    basis set group =>   2
Atom  24C    basis set group =>   3
Atom  25C    basis set group =>   3
Atom  26C    basis set group =>   3
Atom  27C    basis set group =>   3
Atom  28H    basis set group =>   4
Atom  29C    basis set group =>   3
Atom  30H    basis set group =>   4
Atom  31H    basis set group =>   4
Atom  32H    basis set group =>   4
Atom  33C    basis set group =>   3
Atom  34H    basis set group =>   4
Atom  35N    basis set group =>   2
Atom  36C    basis set group =>   3
Atom  37C    basis set group =>   3
Atom  38C    basis set group =>   3
Atom  39C    basis set group =>   3
Atom  40H    basis set group =>   4
Atom  41C    basis set group =>   3
Atom  42H    basis set group =>   4
Atom  43C    basis set group =>   3
Atom  44H    basis set group =>   4
Atom  45N    basis set group =>   2
Atom  46C    basis set group =>   3
Atom  47C    basis set group =>   3
Atom  48C    basis set group =>   3
Atom  49C    basis set group =>   3
Atom  50H    basis set group =>   4
Atom  51C    basis set group =>   3
Atom  52H    basis set group =>   4
Atom  53H    basis set group =>   4
Atom  54H    basis set group =>   4
Atom  55C    basis set group =>   3
Atom  56H    basis set group =>   4
Atom  57N    basis set group =>   2
Atom  58C    basis set group =>   3
Atom  59C    basis set group =>   3
Atom  60C    basis set group =>   3
Atom  61C    basis set group =>   3
Atom  62H    basis set group =>   4
Atom  63C    basis set group =>   3
Atom  64H    basis set group =>   4
Atom  65C    basis set group =>   3
Atom  66H    basis set group =>   4
Atom  67N    basis set group =>   2
Atom  68O    basis set group =>   5
Atom  69O    basis set group =>   5
Atom  70N    basis set group =>   2
Atom  71O    basis set group =>   5
Atom  72O    basis set group =>   5
Atom  73N    basis set group =>   2
Atom  74O    basis set group =>   5
Atom  75O    basis set group =>   5
Atom  76H    basis set group =>   4
Atom  77H    basis set group =>   4
Atom  78H    basis set group =>   4
---------------------------------
AUXILIARY/J BASIS SET INFORMATION
---------------------------------
There are 5 groups of distinct atoms

 Group   1 Type Fe  : 19s5p5d3f3g contracted to 8s5p5d2f3g pattern {121111111/11111/11111/21/111}
 Group   2 Type N   : 12s5p4d2f1g contracted to 6s4p3d1f1g pattern {711111/2111/211/2/1}
 Group   3 Type C   : 12s5p4d2f1g contracted to 6s4p3d1f1g pattern {711111/2111/211/2/1}
 Group   4 Type H   : 5s2p1d contracted to 3s1p1d pattern {311/2/1}
 Group   5 Type O   : 12s5p4d2f1g contracted to 6s4p3d1f1g pattern {711111/2111/211/2/1}

Atom   0Fe   basis set group =>   1
Atom   1N    basis set group =>   2
Atom   2C    basis set group =>   3
Atom   3C    basis set group =>   3
Atom   4C    basis set group =>   3
Atom   5C    basis set group =>   3
Atom   6H    basis set group =>   4
Atom   7C    basis set group =>   3
Atom   8H    basis set group =>   4
Atom   9H    basis set group =>   4
Atom  10H    basis set group =>   4
Atom  11C    basis set group =>   3
Atom  12H    basis set group =>   4
Atom  13N    basis set group =>   2
Atom  14C    basis set group =>   3
Atom  15C    basis set group =>   3
Atom  16C    basis set group =>   3
Atom  17C    basis set group =>   3
Atom  18H    basis set group =>   4
Atom  19C    basis set group =>   3
Atom  20H    basis set group =>   4
Atom  21C    basis set group =>   3
Atom  22H    basis set group =>   4
Atom  23N    basis set group =>   2
Atom  24C    basis set group =>   3
Atom  25C    basis set group =>   3
Atom  26C    basis set group =>   3
Atom  27C    basis set group =>   3
Atom  28H    basis set group =>   4
Atom  29C    basis set group =>   3
Atom  30H    basis set group =>   4
Atom  31H    basis set group =>   4
Atom  32H    basis set group =>   4
Atom  33C    basis set group =>   3
Atom  34H    basis set group =>   4
Atom  35N    basis set group =>   2
Atom  36C    basis set group =>   3
Atom  37C    basis set group =>   3
Atom  38C    basis set group =>   3
Atom  39C    basis set group =>   3
Atom  40H    basis set group =>   4
Atom  41C    basis set group =>   3
Atom  42H    basis set group =>   4
Atom  43C    basis set group =>   3
Atom  44H    basis set group =>   4
Atom  45N    basis set group =>   2
Atom  46C    basis set group =>   3
Atom  47C    basis set group =>   3
Atom  48C    basis set group =>   3
Atom  49C    basis set group =>   3
Atom  50H    basis set group =>   4
Atom  51C    basis set group =>   3
Atom  52H    basis set group =>   4
Atom  53H    basis set group =>   4
Atom  54H    basis set group =>   4
Atom  55C    basis set group =>   3
Atom  56H    basis set group =>   4
Atom  57N    basis set group =>   2
Atom  58C    basis set group =>   3
Atom  59C    basis set group =>   3
Atom  60C    basis set group =>   3
Atom  61C    basis set group =>   3
Atom  62H    basis set group =>   4
Atom  63C    basis set group =>   3
Atom  64H    basis set group =>   4
Atom  65C    basis set group =>   3
Atom  66H    basis set group =>   4
Atom  67N    basis set group =>   2
Atom  68O    basis set group =>   5
Atom  69O    basis set group =>   5
Atom  70N    basis set group =>   2
Atom  71O    basis set group =>   5
Atom  72O    basis set group =>   5
Atom  73N    basis set group =>   2
Atom  74O    basis set group =>   5
Atom  75O    basis set group =>   5
Atom  76H    basis set group =>   4
Atom  77H    basis set group =>   4
Atom  78H    basis set group =>   4
---------------------------------
AUXILIARY/C BASIS SET INFORMATION
---------------------------------
There are 5 groups of distinct atoms

 Group   1 Type Fe  : 9s9p6d4f3g2h contracted to 9s9p6d4f3g2h pattern {111111111/111111111/111111/1111/111/11}
 Group   2 Type N   : 8s6p5d3f contracted to 6s5p4d1f pattern {311111/21111/2111/3}
 Group   3 Type C   : 8s6p5d3f contracted to 6s5p4d1f pattern {311111/21111/2111/3}
 Group   4 Type H   : 4s3p2d contracted to 3s2p1d pattern {211/21/2}
 Group   5 Type O   : 8s6p5d3f contracted to 6s5p4d1f pattern {311111/21111/2111/3}

Atom   0Fe   basis set group =>   1
Atom   1N    basis set group =>   2
Atom   2C    basis set group =>   3
Atom   3C    basis set group =>   3
Atom   4C    basis set group =>   3
Atom   5C    basis set group =>   3
Atom   6H    basis set group =>   4
Atom   7C    basis set group =>   3
Atom   8H    basis set group =>   4
Atom   9H    basis set group =>   4
Atom  10H    basis set group =>   4
Atom  11C    basis set group =>   3
Atom  12H    basis set group =>   4
Atom  13N    basis set group =>   2
Atom  14C    basis set group =>   3
Atom  15C    basis set group =>   3
Atom  16C    basis set group =>   3
Atom  17C    basis set group =>   3
Atom  18H    basis set group =>   4
Atom  19C    basis set group =>   3
Atom  20H    basis set group =>   4
Atom  21C    basis set group =>   3
Atom  22H    basis set group =>   4
Atom  23N    basis set group =>   2
Atom  24C    basis set group =>   3
Atom  25C    basis set group =>   3
Atom  26C    basis set group =>   3
Atom  27C    basis set group =>   3
Atom  28H    basis set group =>   4
Atom  29C    basis set group =>   3
Atom  30H    basis set group =>   4
Atom  31H    basis set group =>   4
Atom  32H    basis set group =>   4
Atom  33C    basis set group =>   3
Atom  34H    basis set group =>   4
Atom  35N    basis set group =>   2
Atom  36C    basis set group =>   3
Atom  37C    basis set group =>   3
Atom  38C    basis set group =>   3
Atom  39C    basis set group =>   3
Atom  40H    basis set group =>   4
Atom  41C    basis set group =>   3
Atom  42H    basis set group =>   4
Atom  43C    basis set group =>   3
Atom  44H    basis set group =>   4
Atom  45N    basis set group =>   2
Atom  46C    basis set group =>   3
Atom  47C    basis set group =>   3
Atom  48C    basis set group =>   3
Atom  49C    basis set group =>   3
Atom  50H    basis set group =>   4
Atom  51C    basis set group =>   3
Atom  52H    basis set group =>   4
Atom  53H    basis set group =>   4
Atom  54H    basis set group =>   4
Atom  55C    basis set group =>   3
Atom  56H    basis set group =>   4
Atom  57N    basis set group =>   2
Atom  58C    basis set group =>   3
Atom  59C    basis set group =>   3
Atom  60C    basis set group =>   3
Atom  61C    basis set group =>   3
Atom  62H    basis set group =>   4
Atom  63C    basis set group =>   3
Atom  64H    basis set group =>   4
Atom  65C    basis set group =>   3
Atom  66H    basis set group =>   4
Atom  67N    basis set group =>   2
Atom  68O    basis set group =>   5
Atom  69O    basis set group =>   5
Atom  70N    basis set group =>   2
Atom  71O    basis set group =>   5
Atom  72O    basis set group =>   5
Atom  73N    basis set group =>   2
Atom  74O    basis set group =>   5
Atom  75O    basis set group =>   5
Atom  76H    basis set group =>   4
Atom  77H    basis set group =>   4
Atom  78H    basis set group =>   4


           ************************************************************
           *        Program running with 8 parallel MPI-processes     *
           *              working on a common directory               *
           ************************************************************
------------------------------------------------------------------------------
                           ORCA GTO INTEGRAL CALCULATION
                           -- RI-GTO INTEGRALS CHOSEN --
------------------------------------------------------------------------------
------------------------------------------------------------------------------
                   ___                                                        
                  /   \      - P O W E R E D   B Y -                         
                 /     \                                                     
                 |  |  |   _    _      __       _____    __    __             
                 |  |  |  | |  | |    /  \     |  _  \  |  |  /  |          
                  \  \/   | |  | |   /    \    | | | |  |  | /  /          
                 / \  \   | |__| |  /  /\  \   | |_| |  |  |/  /          
                |  |  |   |  __  | /  /__\  \  |    /   |      \           
                |  |  |   | |  | | |   __   |  |    \   |  |\   \          
                \     /   | |  | | |  |  |  |  | |\  \  |  | \   \       
                 \___/    |_|  |_| |__|  |__|  |_| \__\ |__|  \__/        
                                                                              
                      - O R C A' S   B I G   F R I E N D -                    
                                      &                                       
                       - I N T E G R A L  F E E D E R -                       
                                                                              
 v1 FN, 2020, v2 2021                                                         
------------------------------------------------------------------------------


Reading SHARK input file FeC_4_B2PLYP_def2SVP.SHARKINP.tmp ... ok
----------------------
SHARK INTEGRAL PACKAGE
----------------------

Number of atoms                             ...     79
Number of basis functions                   ...    880
Number of shells                            ...    398
Maximum angular momentum                    ...      3
Integral batch strategy                     ... SHARK/LIBINT Hybrid
RI-J (if used) integral strategy            ... SPLIT-RIJ (Revised 2003 algorithm where possible)
Printlevel                                  ...      1
Contraction scheme used                     ... SEGMENTED contraction
Coulomb Range Separation                    ... NOT USED
Exchange Range Separation                   ... NOT USED
Finite Nucleus Model                        ... NOT USED
Auxiliary Coulomb fitting basis             ... AVAILABLE
   # of basis functions in Aux-J            ...   2885
   # of shells in Aux-J                     ...    923
   Maximum angular momentum in Aux-J        ...      4
Auxiliary J/K fitting basis                 ... NOT available
Auxiliary Correlation fitting basis         ... AVAILABLE
   # of basis functions in Aux-C            ...   2969
   # of shells in Aux-C                     ...   1011
   Maximum angular momentum in Aux-C        ...      5
Auxiliary 'external' fitting basis          ... NOT available
Integral threshold                          ...     2.500000e-11
Primitive cut-off                           ...     2.500000e-12
Primitive pair pre-selection threshold      ...     2.500000e-12

Calculating pre-screening integrals         ... done (  0.1 sec) Dimension = 398
Organizing shell pair data                  ... done (  0.2 sec)
Shell pair information
Total number of shell pairs                 ...     79401
Shell pairs after pre-screening             ...     48676
Total number of primitive shell pairs       ...    302260
Primitive shell pairs kept                  ...    106083
          la=0 lb=0:  14275 shell pairs
          la=1 lb=0:  18072 shell pairs
          la=1 lb=1:   5821 shell pairs
          la=2 lb=0:   5905 shell pairs
          la=2 lb=1:   3814 shell pairs
          la=2 lb=2:    537 shell pairs
          la=3 lb=0:    133 shell pairs
          la=3 lb=1:     89 shell pairs
          la=3 lb=2:     29 shell pairs
          la=3 lb=3:      1 shell pairs

Calculating one electron integrals          ... done (  0.1 sec)
Calculating RI/J V-Matrix + Cholesky decomp.... done (  0.6 sec)
Calculating RI/C V-Matrix + Cholesky decomp.... done (  0.5 sec)
Calculating Nuclear repulsion               ... done (  0.0 sec) ENN=   8281.107286528508 Eh

SHARK setup successfully completed in   2.0 seconds

Maximum memory used throughout the entire GTOINT-calculation: 87.7 MB


           ************************************************************
           *        Program running with 8 parallel MPI-processes     *
           *              working on a common directory               *
           ************************************************************
-------------------------------------------------------------------------------
                                 ORCA SCF
-------------------------------------------------------------------------------

------------
SCF SETTINGS
------------
Hamiltonian:
 Density Functional     Method          .... DFT(GTOs)
 Exchange Functional    Exchange        .... B88
   X-Alpha parameter    XAlpha          ....  0.666667
   Becke's b parameter  XBeta           ....  0.004200
 Correlation Functional Correlation     .... LYP
 LDA part of GGA corr.  LDAOpt          .... VWN-3
 Gradients option       PostSCFGGA      .... off
 Hybrid DFT is turned on
   Fraction HF Exchange ScalHFX         ....  0.530000
   Scaling of DF-GGA-X  ScalDFX         ....  0.470000
   Scaling of DF-GGA-C  ScalDFC         ....  0.730000
   Scaling of DF-LDA-C  ScalLDAC        ....  0.730000
   Perturbative correction              ....  0.270000
   Density functional embedding theory  .... OFF
   NL short-range parameter             ....  7.800000
 RI-approximation to the Coulomb term is turned on
   Number of AuxJ basis functions       .... 2885
   RIJ-COSX (HFX calculated with COS-X)).... on


General Settings:
 Integral files         IntName         .... FeC_4_B2PLYP_def2SVP
 Hartree-Fock type      HFTyp           .... RHF
 Total Charge           Charge          ....    2
 Multiplicity           Mult            ....    1
 Number of Electrons    NEL             ....  378
 Basis Dimension        Dim             ....  880
 Nuclear Repulsion      ENuc            ....   8281.1072865285 Eh

Convergence Acceleration:
 DIIS                   CNVDIIS         .... on
   Start iteration      DIISMaxIt       ....    12
   Startup error        DIISStart       ....  0.200000
   # of expansion vecs  DIISMaxEq       ....     5
   Bias factor          DIISBfac        ....   1.050
   Max. coefficient     DIISMaxC        ....  10.000
 Trust-Rad. Augm. Hess. CNVTRAH         .... auto
   Auto Start mean grad. ratio tolernc. ....  1.125000
   Auto Start start iteration           ....    20
   Auto Start num. interpolation iter.  ....    10
   Max. Number of Micro iterations      ....    16
   Max. Number of Macro iterations      .... Maxiter - #DIIS iter
   Number of Davidson start vectors     ....     2
   Converg. threshold I  (grad. norm)   ....   1.000e-05
   Converg. threshold II (energy diff.) ....   1.000e-08
   Grad. Scal. Fac. for Micro threshold ....   0.100
   Minimum threshold for Micro iter.    ....   0.010
   NR start threshold (gradient norm)   ....   0.001
   Initial trust radius                 ....   0.400
   Minimum AH scaling param. (alpha)    ....   1.000
   Maximum AH scaling param. (alpha)    .... 1000.000
   Orbital update algorithm             .... Taylor
   White noise on init. David. guess    .... on
   Maximum white noise                  ....   0.010
   Quad. conv. algorithm                .... NR
 SOSCF                  CNVSOSCF        .... off
 Level Shifting         CNVShift        .... on
   Level shift para.    LevelShift      ....    0.2500
   Turn off err/grad.   ShiftErr        ....    0.0010
 Zerner damping         CNVZerner       .... off
 Static damping         CNVDamp         .... on
   Fraction old density DampFac         ....    0.7000
   Max. Damping (<1)    DampMax         ....    0.9800
   Min. Damping (>=0)   DampMin         ....    0.0000
   Turn off err/grad.   DampErr         ....    0.1000
 Fernandez-Rico         CNVRico         .... off

SCF Procedure:
 Maximum # iterations   MaxIter         ....   125
 SCF integral mode      SCFMode         .... Direct
   Integral package                     .... SHARK and LIBINT hybrid scheme
 Reset frequency        DirectResetFreq ....    20
 Integral Threshold     Thresh          ....  2.500e-11 Eh
 Primitive CutOff       TCut            ....  2.500e-12 Eh

Convergence Tolerance:
 Convergence Check Mode ConvCheckMode   .... Total+1el-Energy
 Convergence forced     ConvForced      .... 1
 Energy Change          TolE            ....  1.000e-08 Eh
 1-El. energy change                    ....  1.000e-05 Eh
 DIIS Error             TolErr          ....  5.000e-07


Diagonalization of the overlap matrix:
Smallest eigenvalue                        ... 2.130e-04
Time for diagonalization                   ...    0.251 sec
Threshold for overlap eigenvalues          ... 1.000e-08
Number of eigenvalues below threshold      ... 0
Time for construction of square roots      ...    0.072 sec
Total time needed                          ...    0.325 sec

Time for model grid setup =    0.868 sec

------------------------------
INITIAL GUESS: MODEL POTENTIAL
------------------------------
Loading Hartree-Fock densities                     ... done
Calculating cut-offs                               ... done
Initializing the effective Hamiltonian             ... done
Setting up the integral package (SHARK)            ... done
Starting the Coulomb interaction                   ... done (   0.9 sec)
Reading the grid                                   ... done
Mapping shells                                     ... done
Starting the XC term evaluation                    ... done (   0.3 sec)
  promolecular density results
     # of electrons  =    379.977145176
     EX              =   -356.119702136
     EC              =     -4.651853600
     EX+EC           =   -360.771555736
Transforming the Hamiltonian                       ... done (   0.1 sec)
Diagonalizing the Hamiltonian                      ... done (   0.1 sec)
Back transforming the eigenvectors                 ... done (   0.0 sec)
Now organizing SCF variables                       ... done
                      ------------------
                      INITIAL GUESS DONE (   2.4 sec)
                      ------------------
-------------------
DFT GRID GENERATION
-------------------

General Integration Accuracy     IntAcc      ... 4.388
Radial Grid Type                 RadialGrid  ... OptM3 with GC (2021)
Angular Grid (max. ang.)         AngularGrid ... 4 (Lebedev-302)
Angular grid pruning method      GridPruning ... 4 (adaptive)
Weight generation scheme         WeightScheme... Becke
Basis function cutoff            BFCut       ... 1.0000e-11
Integration weight cutoff        WCut        ... 1.0000e-14
Angular grids for H and He will be reduced by one unit
Partially contracted basis set               ... off
Rotationally invariant grid construction     ... off

Total number of grid points                  ...   396920
Total number of batches                      ...     6241
Average number of points per batch           ...       63
Average number of grid points per atom       ...     5024
Time for grid setup =    3.267 sec

--------------------
COSX GRID GENERATION
--------------------

GRIDX 1
-------
General Integration Accuracy     IntAcc      ... 3.816
Radial Grid Type                 RadialGrid  ... OptM3 with GC (2021)
Angular Grid (max. ang.)         AngularGrid ... 1 (Lebedev-50)
Angular grid pruning method      GridPruning ... 4 (adaptive)
Weight generation scheme         WeightScheme... Becke
Basis function cutoff            BFCut       ... 1.0000e-11
Integration weight cutoff        WCut        ... 1.0000e-14
Angular grids for H and He will be reduced by one unit
Partially contracted basis set               ... on
Rotationally invariant grid construction     ... off

Total number of grid points                  ...    49926
Total number of batches                      ...      811
Average number of points per batch           ...       61
Average number of grid points per atom       ...      632
UseSFitting                                  ... on

GRIDX 2
-------
General Integration Accuracy     IntAcc      ... 4.020
Radial Grid Type                 RadialGrid  ... OptM3 with GC (2021)
Angular Grid (max. ang.)         AngularGrid ... 2 (Lebedev-110)
Angular grid pruning method      GridPruning ... 4 (adaptive)
Weight generation scheme         WeightScheme... Becke
Basis function cutoff            BFCut       ... 1.0000e-11
Integration weight cutoff        WCut        ... 1.0000e-14
Angular grids for H and He will be reduced by one unit
Partially contracted basis set               ... on
Rotationally invariant grid construction     ... off

Total number of grid points                  ...   108867
Total number of batches                      ...     1738
Average number of points per batch           ...       62
Average number of grid points per atom       ...     1378
UseSFitting                                  ... on

GRIDX 3
-------
General Integration Accuracy     IntAcc      ... 4.338
Radial Grid Type                 RadialGrid  ... OptM3 with GC (2021)
Angular Grid (max. ang.)         AngularGrid ... 3 (Lebedev-194)
Angular grid pruning method      GridPruning ... 4 (adaptive)
Weight generation scheme         WeightScheme... Becke
Basis function cutoff            BFCut       ... 1.0000e-11
Integration weight cutoff        WCut        ... 1.0000e-14
Angular grids for H and He will be reduced by one unit
Partially contracted basis set               ... on
Rotationally invariant grid construction     ... off

Total number of grid points                  ...   237051
Total number of batches                      ...     3744
Average number of points per batch           ...       63
Average number of grid points per atom       ...     3001
UseSFitting                                  ... on

Time for X-Grid setup             =    3.504 sec


--------------------
CPCM SOLVATION MODEL
--------------------
CPCM parameters:
  Epsilon                                         ...      35.6880
  Refrac                                          ...       1.3442
  Rsolv                                           ...       1.3000
  Surface type                                    ... GAUSSIAN VDW
  Epsilon function type                           ...         CPCM
Solvent:                                     ... ACETONITRILE
SMD-CDS solvent descriptors:
  Soln                                       ...    1.3442
  Soln25                                     ...    1.3416
  Sola                                       ...    0.0700
  Solb                                       ...    0.3200
  Solg                                       ...   41.2500
  Solc                                       ...    0.0000
  Solh                                       ...    0.0000
Radii:
 Radius for Fe used is    3.6661 Bohr (=   1.9400 Ang.)
 Radius for N  used is    3.5716 Bohr (=   1.8900 Ang.)
 Radius for C  used is    3.4960 Bohr (=   1.8500 Ang.)
 Radius for H  used is    2.2677 Bohr (=   1.2000 Ang.)
 Radius for O  used is    4.0969 Bohr (=   2.1680 Ang.)
Calculating surface                               ...        done! (  0.0s)
GEPOL surface points                              ...         4221
GEPOL Volume                                      ...    4965.6842
GEPOL Surface-area                                ...    2354.1384
Calculating surface distance matrix               ...        done! (  0.1s)
Performing Cholesky decomposition & store         ...        done! (  1.0s)
Overall time for CPCM initialization              ...                 1.1s
--------------
SCF ITERATIONS
--------------
ITER       Energy         Delta-E        Max-DP      RMS-DP      [F,P]     Damp
               ***  Starting incremental Fock matrix formation  ***
  0  -3587.3533951302   0.000000000000 0.08312789  0.00126454  0.2347872 0.7000
  1  -3587.8043983716  -0.451003241433 0.05504233  0.00090855  0.0999467 0.7000
                               ***Turning on DIIS***
  2  -3588.0159862855  -0.211587913887 0.19025432  0.00200555  0.0659016 0.0000
  3  -3588.4256040284  -0.409617742842 0.03787439  0.00040571  0.0543342 0.0000
  4  -3588.4750901908  -0.049486162395 0.02664187  0.00017830  0.0189891 0.0000
  5  -3588.4819504845  -0.006860293759 0.02261165  0.00011377  0.0161706 0.0000
  6  -3588.4847534650  -0.002802980490 0.01476200  0.00007704  0.0123686 0.0000
  7  -3588.4858463522  -0.001092887165 0.00876958  0.00004760  0.0077115 0.0000
  8  -3588.4863589836  -0.000512631464 0.00293384  0.00002485  0.0013912 0.0000
  9  -3588.4865113144  -0.000152330783 0.00246741  0.00002469  0.0008320 0.0000
               *** Restarting incremental Fock matrix formation ***
                                   *** Resetting DIIS ***
 10  -3588.4864763605   0.000034953897 0.00074554  0.00001533  0.0004984 0.0000
 11  -3588.4864794911  -0.000003130619 0.00046005  0.00000361  0.0005325 0.0000
 12  -3588.4864811480  -0.000001656816 0.00036032  0.00000249  0.0003988 0.0000
 13  -3588.4864818434  -0.000000695489 0.00033722  0.00000119  0.0002015 0.0000
 14  -3588.4864820484  -0.000000204978 0.00028208  0.00000095  0.0001320 0.0000
 15  -3588.4864822257  -0.000000177277 0.00017991  0.00000048  0.0000726 0.0000
 16  -3588.4864822955  -0.000000069771 0.00015713  0.00000042  0.0000414 0.0000
 17  -3588.4864822911   0.000000004400 0.00005367  0.00000015  0.0000164 0.0000
 18  -3588.4864822835   0.000000007541 0.00003015  0.00000011  0.0000141 0.0000
 19  -3588.4864822823   0.000000001232 0.00001899  0.00000007  0.0000121 0.0000
 20  -3588.4864822474   0.000000034950 0.00001320  0.00000005  0.0000102 0.0000
 21  -3588.4864822619  -0.000000014566 0.00001733  0.00000006  0.0000086 0.0000
 22  -3588.4864822984  -0.000000036473 0.00002062  0.00000007  0.0000062 0.0000
 23  -3588.4864823965  -0.000000098097 0.00001382  0.00000005  0.0000034 0.0000
 24  -3588.4864824130  -0.000000016470 0.00000621  0.00000002  0.0000020 0.0000
 25  -3588.4864824190  -0.000000005997 0.00000544  0.00000002  0.0000015 0.0000
                            ***DIIS convergence achieved***

               *****************************************************
               *                     SUCCESS                       *
               *           SCF CONVERGED AFTER  26 CYCLES          *
               *****************************************************

Old exchange energy                            =   -189.909062331 Eh
New exchange energy                            =   -189.909282211 Eh
Exchange energy change after final integration =     -0.000219881 Eh
Total energy after final integration           =  -3588.486702340 Eh
Final COS-X integration done in                =    41.314 sec

SMD CDS free energy correction energy :                -6.61805     Kcal/mol
Total Energy after SMD CDS correction =             -3588.497248870 Eh

----------------
TOTAL SCF ENERGY
----------------

Total Energy       :        -3588.49724887 Eh          -97647.97447 eV

Components:
Nuclear Repulsion  :         8281.10728653 Eh          225340.38535 eV
Electronic Energy  :       -11869.60453540 Eh         -322988.35982 eV
One Electron Energy:       -21331.81884662 Eh         -580468.30125 eV
Two Electron Energy:         9462.21431122 Eh          257479.94144 eV
Max COSX asymmetry :            0.00002190 Eh               0.00060 eV
CPCM Dielectric    :           -0.28379560 Eh              -7.72247 eV
SMD CDS (Gcds)     :           -0.01054653 Eh              -0.28699 eV

Virial components:
Potential Energy   :        -7156.84194012 Eh         -194747.56997 eV
Kinetic Energy     :         3568.34469125 Eh           97099.59550 eV
Virial Ratio       :            2.00564759


DFT components:
N(Alpha)           :      189.000178209629 electrons
N(Beta)            :      189.000178209629 electrons
N(Total)           :      378.000356419257 electrons
E(X)               :     -169.035111081987 Eh       
E(C)               :       -9.830204192659 Eh       
E(XC)              :     -178.865315274646 Eh       
DFET-embed. en.    :        0.000000000000 Eh       
CPCM Solvation Model Properties:
Surface-charge          :           -2.03784005
Charge-correction       :            0.00667258 Eh               0.18157 eV
Free-energy (cav+disp)  :           -0.01054653 Eh              -0.28699 eV

---------------
SCF CONVERGENCE
---------------

  Last Energy change         ...   -4.0930e-08  Tolerance :   1.0000e-08
  Last MAX-Density change    ...    0.0000e+00  Tolerance :   1.0000e-07
  Last RMS-Density change    ...    0.0000e+00  Tolerance :   5.0000e-09
  Last DIIS Error            ...    8.8557e-07  Tolerance :   5.0000e-07

             **** THE GBW FILE WAS UPDATED (FeC_4_B2PLYP_def2SVP.gbw) ****
             **** DENSITY FeC_4_B2PLYP_def2SVP.scfp WAS UPDATED ****
             **** ENERGY FILE WAS UPDATED (FeC_4_B2PLYP_def2SVP.en.tmp) ****
             **** THE GBW FILE WAS UPDATED (FeC_4_B2PLYP_def2SVP.gbw) ****
             **** DENSITY FeC_4_B2PLYP_def2SVP.scfp WAS UPDATED ****
----------------
ORBITAL ENERGIES
----------------

  NO   OCC          E(Eh)            E(eV) 
   0   2.0000    -258.266992     -7027.8021 
   1   2.0000     -30.797592      -838.0451 
   2   2.0000     -26.510766      -721.3946 
   3   2.0000     -26.510467      -721.3865 
   4   2.0000     -26.508340      -721.3286 
   5   2.0000     -19.775857      -538.1284 
   6   2.0000     -19.775361      -538.1149 
   7   2.0000     -19.775156      -538.1094 
   8   2.0000     -19.775107      -538.1080 
   9   2.0000     -19.774825      -538.1003 
  10   2.0000     -19.774621      -538.0948 
  11   2.0000     -15.112719      -411.2380 
  12   2.0000     -15.112139      -411.2222 
  13   2.0000     -15.112091      -411.2209 
  14   2.0000     -14.904368      -405.5685 
  15   2.0000     -14.904247      -405.5652 
  16   2.0000     -14.903412      -405.5425 
  17   2.0000     -14.902450      -405.5163 
  18   2.0000     -14.902357      -405.5137 
  19   2.0000     -14.901811      -405.4989 
  20   2.0000     -10.720059      -291.7076 
  21   2.0000     -10.719795      -291.7004 
  22   2.0000     -10.719198      -291.6842 
  23   2.0000     -10.703914      -291.2683 
  24   2.0000     -10.703081      -291.2456 
  25   2.0000     -10.702605      -291.2327 
  26   2.0000     -10.700152      -291.1659 
  27   2.0000     -10.699781      -291.1558 
  28   2.0000     -10.699289      -291.1424 
  29   2.0000     -10.696826      -291.0754 
  30   2.0000     -10.696405      -291.0640 
  31   2.0000     -10.695916      -291.0507 
  32   2.0000     -10.695791      -291.0473 
  33   2.0000     -10.695642      -291.0432 
  34   2.0000     -10.695469      -291.0385 
  35   2.0000     -10.670055      -290.3470 
  36   2.0000     -10.669412      -290.3294 
  37   2.0000     -10.669171      -290.3229 
  38   2.0000     -10.667257      -290.2708 
  39   2.0000     -10.666670      -290.2548 
  40   2.0000     -10.666377      -290.2469 
  41   2.0000     -10.666150      -290.2407 
  42   2.0000     -10.665365      -290.2193 
  43   2.0000     -10.664484      -290.1953 
  44   2.0000     -10.663268      -290.1623 
  45   2.0000     -10.662471      -290.1406 
  46   2.0000     -10.662351      -290.1373 
  47   2.0000     -10.661545      -290.1154 
  48   2.0000     -10.661187      -290.1056 
  49   2.0000     -10.661030      -290.1014 
  50   2.0000     -10.660824      -290.0958 
  51   2.0000     -10.660369      -290.0834 
  52   2.0000     -10.660117      -290.0765 
  53   2.0000     -10.654822      -289.9325 
  54   2.0000     -10.654671      -289.9283 
  55   2.0000     -10.654115      -289.9132 
  56   2.0000      -3.700271      -100.6895 
  57   2.0000      -2.395917       -65.1962 
  58   2.0000      -2.394395       -65.1548 
  59   2.0000      -2.389311       -65.0165 
  60   2.0000      -1.392210       -37.8840 
  61   2.0000      -1.391678       -37.8695 
  62   2.0000      -1.391557       -37.8662 
  63   2.0000      -1.202733       -32.7280 
  64   2.0000      -1.202105       -32.7109 
  65   2.0000      -1.202077       -32.7102 
  66   2.0000      -1.134838       -30.8805 
  67   2.0000      -1.125046       -30.6141 
  68   2.0000      -1.123358       -30.5681 
  69   2.0000      -1.092984       -29.7416 
  70   2.0000      -1.092325       -29.7237 
  71   2.0000      -1.091032       -29.6885 
  72   2.0000      -1.013720       -27.5847 
  73   2.0000      -1.013181       -27.5700 
  74   2.0000      -1.012752       -27.5584 
  75   2.0000      -0.945210       -25.7205 
  76   2.0000      -0.943944       -25.6860 
  77   2.0000      -0.942658       -25.6510 
  78   2.0000      -0.935269       -25.4500 
  79   2.0000      -0.934300       -25.4236 
  80   2.0000      -0.933749       -25.4086 
  81   2.0000      -0.913707       -24.8632 
  82   2.0000      -0.913530       -24.8584 
  83   2.0000      -0.913213       -24.8498 
  84   2.0000      -0.879654       -23.9366 
  85   2.0000      -0.878801       -23.9134 
  86   2.0000      -0.876182       -23.8421 
  87   2.0000      -0.815494       -22.1907 
  88   2.0000      -0.811783       -22.0898 
  89   2.0000      -0.810920       -22.0663 
  90   2.0000      -0.797815       -21.7097 
  91   2.0000      -0.795732       -21.6530 
  92   2.0000      -0.794381       -21.6162 
  93   2.0000      -0.757920       -20.6241 
  94   2.0000      -0.757465       -20.6117 
  95   2.0000      -0.757064       -20.6008 
  96   2.0000      -0.734935       -19.9986 
  97   2.0000      -0.730470       -19.8771 
  98   2.0000      -0.729396       -19.8479 
  99   2.0000      -0.713974       -19.4282 
 100   2.0000      -0.712481       -19.3876 
 101   2.0000      -0.701598       -19.0915 
 102   2.0000      -0.682548       -18.5731 
 103   2.0000      -0.679519       -18.4907 
 104   2.0000      -0.678791       -18.4708 
 105   2.0000      -0.660304       -17.9678 
 106   2.0000      -0.658886       -17.9292 
 107   2.0000      -0.658193       -17.9103 
 108   2.0000      -0.647850       -17.6289 
 109   2.0000      -0.634308       -17.2604 
 110   2.0000      -0.632379       -17.2079 
 111   2.0000      -0.631575       -17.1860 
 112   2.0000      -0.631478       -17.1834 
 113   2.0000      -0.630830       -17.1657 
 114   2.0000      -0.618705       -16.8358 
 115   2.0000      -0.616057       -16.7638 
 116   2.0000      -0.615283       -16.7427 
 117   2.0000      -0.604753       -16.4562 
 118   2.0000      -0.601028       -16.3548 
 119   2.0000      -0.600554       -16.3419 
 120   2.0000      -0.594632       -16.1807 
 121   2.0000      -0.594062       -16.1652 
 122   2.0000      -0.590159       -16.0590 
 123   2.0000      -0.580413       -15.7938 
 124   2.0000      -0.578475       -15.7411 
 125   2.0000      -0.577444       -15.7130 
 126   2.0000      -0.570329       -15.5194 
 127   2.0000      -0.568814       -15.4782 
 128   2.0000      -0.567898       -15.4533 
 129   2.0000      -0.564789       -15.3687 
 130   2.0000      -0.563495       -15.3335 
 131   2.0000      -0.558002       -15.1840 
 132   2.0000      -0.543787       -14.7972 
 133   2.0000      -0.539504       -14.6807 
 134   2.0000      -0.534990       -14.5578 
 135   2.0000      -0.534127       -14.5343 
 136   2.0000      -0.530926       -14.4472 
 137   2.0000      -0.527822       -14.3628 
 138   2.0000      -0.525444       -14.2981 
 139   2.0000      -0.520899       -14.1744 
 140   2.0000      -0.514461       -13.9992 
 141   2.0000      -0.509428       -13.8623 
 142   2.0000      -0.504492       -13.7279 
 143   2.0000      -0.497193       -13.5293 
 144   2.0000      -0.482932       -13.1412 
 145   2.0000      -0.478954       -13.0330 
 146   2.0000      -0.473545       -12.8858 
 147   2.0000      -0.468779       -12.7561 
 148   2.0000      -0.467170       -12.7123 
 149   2.0000      -0.466315       -12.6891 
 150   2.0000      -0.463472       -12.6117 
 151   2.0000      -0.462675       -12.5900 
 152   2.0000      -0.459699       -12.5090 
 153   2.0000      -0.458838       -12.4856 
 154   2.0000      -0.456850       -12.4315 
 155   2.0000      -0.448663       -12.2087 
 156   2.0000      -0.442508       -12.0412 
 157   2.0000      -0.437680       -11.9099 
 158   2.0000      -0.433178       -11.7874 
 159   2.0000      -0.422713       -11.5026 
 160   2.0000      -0.419258       -11.4086 
 161   2.0000      -0.415737       -11.3128 
 162   2.0000      -0.411857       -11.2072 
 163   2.0000      -0.405473       -11.0335 
 164   2.0000      -0.402528       -10.9533 
 165   2.0000      -0.402134       -10.9426 
 166   2.0000      -0.400617       -10.9013 
 167   2.0000      -0.399651       -10.8751 
 168   2.0000      -0.391279       -10.6472 
 169   2.0000      -0.390522       -10.6267 
 170   2.0000      -0.389842       -10.6081 
 171   2.0000      -0.385211       -10.4821 
 172   2.0000      -0.384843       -10.4721 
 173   2.0000      -0.384446       -10.4613 
 174   2.0000      -0.382220       -10.4007 
 175   2.0000      -0.369988       -10.0679 
 176   2.0000      -0.355453        -9.6724 
 177   2.0000      -0.344243        -9.3673 
 178   2.0000      -0.340288        -9.2597 
 179   2.0000      -0.336425        -9.1546 
 180   2.0000      -0.330418        -8.9911 
 181   2.0000      -0.327542        -8.9129 
 182   2.0000      -0.326394        -8.8816 
 183   2.0000      -0.324861        -8.8399 
 184   2.0000      -0.323334        -8.7984 
 185   2.0000      -0.321502        -8.7485 
 186   2.0000      -0.299696        -8.1551 
 187   2.0000      -0.297895        -8.1061 
 188   2.0000      -0.295096        -8.0300 
 189   0.0000      -0.060317        -1.6413 
 190   0.0000      -0.056511        -1.5377 
 191   0.0000      -0.055340        -1.5059 
 192   0.0000      -0.046707        -1.2710 
 193   0.0000      -0.044429        -1.2090 
 194   0.0000      -0.043458        -1.1825 
 195   0.0000       0.000179         0.0049 
 196   0.0000       0.005070         0.1380 
 197   0.0000       0.006930         0.1886 
 198   0.0000       0.024762         0.6738 
 199   0.0000       0.025836         0.7030 
 200   0.0000       0.031967         0.8699 
 201   0.0000       0.051140         1.3916 
 202   0.0000       0.054505         1.4832 
 203   0.0000       0.055458         1.5091 
 204   0.0000       0.074844         2.0366 
 205   0.0000       0.077081         2.0975 
 206   0.0000       0.080212         2.1827 
 207   0.0000       0.093776         2.5518 
 208   0.0000       0.111411         3.0317 
 209   0.0000       0.113328         3.0838 
 210   0.0000       0.121578         3.3083 
 211   0.0000       0.122382         3.3302 
 212   0.0000       0.126432         3.4404 
 213   0.0000       0.129938         3.5358 
 214   0.0000       0.132266         3.5991 
 215   0.0000       0.136483         3.7139 
 216   0.0000       0.140637         3.8269 
 217   0.0000       0.143703         3.9104 
 218   0.0000       0.149189         4.0597 
 219   0.0000       0.161352         4.3906 
 220   0.0000       0.163291         4.4434 
 221   0.0000       0.168414         4.5828 
 222   0.0000       0.172826         4.7028 
 223   0.0000       0.176646         4.8068 
 224   0.0000       0.181246         4.9319 
 225   0.0000       0.181818         4.9475 
 226   0.0000       0.183779         5.0009 
 227   0.0000       0.186471         5.0741 
 228   0.0000       0.191163         5.2018 
 229   0.0000       0.193461         5.2643 
 230   0.0000       0.195343         5.3156 
 231   0.0000       0.198421         5.3993 
 232   0.0000       0.200338         5.4515 
 233   0.0000       0.202645         5.5143 
 234   0.0000       0.207721         5.6524 
 235   0.0000       0.208539         5.6746 
 236   0.0000       0.211938         5.7671 
 237   0.0000       0.216118         5.8809 
 238   0.0000       0.219832         5.9819 
 239   0.0000       0.225210         6.1283 
 240   0.0000       0.230758         6.2792 
 241   0.0000       0.233211         6.3460 
 242   0.0000       0.239983         6.5303 
 243   0.0000       0.245758         6.6874 
 244   0.0000       0.249483         6.7888 
 245   0.0000       0.254737         6.9318 
 246   0.0000       0.260886         7.0991 
 247   0.0000       0.275618         7.5000 
 248   0.0000       0.280258         7.6262 
 249   0.0000       0.286907         7.8071 
 250   0.0000       0.292430         7.9574 
 251   0.0000       0.294821         8.0225 
 252   0.0000       0.296120         8.0578 
 253   0.0000       0.302783         8.2392 
 254   0.0000       0.306728         8.3465 
 255   0.0000       0.309964         8.4346 
 256   0.0000       0.314594         8.5605 
 257   0.0000       0.317961         8.6521 
 258   0.0000       0.323486         8.8025 
 259   0.0000       0.327541         8.9128 
 260   0.0000       0.332007         9.0344 
 261   0.0000       0.334319         9.0973 
 262   0.0000       0.337379         9.1805 
[...]
   188a -> 192a  :     0.041787 

STATE 36:  E=   0.147342 au      4.009 eV    32337.7 cm**-1 <S**2> =   0.000000
   174a -> 190a  :     0.011768 
   176a -> 190a  :     0.014515 
   177a -> 190a  :     0.121625 
   177a -> 194a  :     0.014197 
   178a -> 190a  :     0.172718 
   178a -> 194a  :     0.011747 
   179a -> 191a  :     0.032401 
   180a -> 189a  :     0.013049 
   180a -> 190a  :     0.012815 
   181a -> 193a  :     0.022997 
   182a -> 189a  :     0.017475 
   182a -> 190a  :     0.143586 
   182a -> 193a  :     0.010388 
   184a -> 190a  :     0.029492 
   184a -> 192a  :     0.016800 
   184a -> 193a  :     0.023843 
   186a -> 191a  :     0.015169 
   186a -> 193a  :     0.011484 
   187a -> 190a  :     0.028935 
   188a -> 190a  :     0.022892 
   188a -> 192a  :     0.040666 

STATE 37:  E=   0.161577 au      4.397 eV    35462.0 cm**-1 <S**2> =   0.000000
   177a -> 189a  :     0.064446 
   179a -> 189a  :     0.010882 
   180a -> 189a  :     0.031442 
   181a -> 191a  :     0.012371 
   181a -> 192a  :     0.019000 
   184a -> 192a  :     0.019082 
   186a -> 189a  :     0.013346 
   186a -> 192a  :     0.037994 
   188a -> 192a  :     0.524676 
   188a -> 193a  :     0.135889 

STATE 38:  E=   0.152734 au      4.156 eV    33521.3 cm**-1 <S**2> =   0.000000
   177a -> 189a  :     0.267171 
   177a -> 190a  :     0.012123 
   177a -> 193a  :     0.012216 
   178a -> 189a  :     0.018470 
   178a -> 190a  :     0.015650 
   179a -> 189a  :     0.051481 
   180a -> 189a  :     0.069473 
   183a -> 189a  :     0.027713 
   183a -> 190a  :     0.013232 
   184a -> 189a  :     0.044535 
   185a -> 189a  :     0.016370 
   186a -> 189a  :     0.031862 
   186a -> 190a  :     0.010431 
   187a -> 189a  :     0.019692 
   187a -> 190a  :     0.011445 
   188a -> 192a  :     0.074077 
   188a -> 193a  :     0.067810 

STATE 39:  E=   0.149257 au      4.062 eV    32758.2 cm**-1 <S**2> =   0.000000
   175a -> 190a  :     0.011627 
   177a -> 189a  :     0.025735 
   177a -> 190a  :     0.015689 
   178a -> 190a  :     0.022565 
   179a -> 190a  :     0.038136 
   179a -> 191a  :     0.017080 
   180a -> 190a  :     0.124425 
   180a -> 194a  :     0.015604 
   181a -> 190a  :     0.029553 
   182a -> 190a  :     0.016886 
   184a -> 190a  :     0.072980 
   185a -> 190a  :     0.040160 
   186a -> 190a  :     0.112548 
   186a -> 194a  :     0.019053 
   187a -> 190a  :     0.220949 
   187a -> 191a  :     0.014939 
   187a -> 192a  :     0.015341 
   187a -> 193a  :     0.027529 
   188a -> 194a  :     0.017322 

STATE 40:  E=   0.167031 au      4.545 eV    36659.0 cm**-1 <S**2> =   0.000000
   177a -> 190a  :     0.011001 
   183a -> 189a  :     0.044909 
   186a -> 194a  :     0.063578 
   187a -> 193a  :     0.011803 
   188a -> 189a  :     0.022279 
   188a -> 190a  :     0.032404 
   188a -> 194a  :     0.703898 


-------------------------
TD-DFT-EXCITATION SPECTRA
-------------------------

Center of mass = (  0.0089, -0.0329,  0.0103)
Calculating the Dipole integrals                  ... done
Transforming integrals                            ... done
Calculating the Linear Momentum integrals         ... done
Transforming integrals                            ... done
Calculating angular momentum integrals            ... done
Transforming integrals                            ... done

-----------------------------------------------------------------------------
         ABSORPTION SPECTRUM VIA TRANSITION ELECTRIC DIPOLE MOMENTS
-----------------------------------------------------------------------------
State   Energy    Wavelength  fosc         T2        TX        TY        TZ  
        (cm-1)      (nm)                 (au**2)    (au)      (au)      (au) 
-----------------------------------------------------------------------------
   1   16550.0    604.2   0.000039122   0.00078  -0.02405   0.00080   0.01412
   2   17097.7    584.9   0.000013362   0.00026   0.01512  -0.00130  -0.00521
   3   17865.1    559.8   0.000082234   0.00152  -0.03628   0.00026   0.01410
   4   25447.6    393.0   0.000209879   0.00272  -0.01821  -0.01439   0.04665
   5   25959.7    385.2   0.000357042   0.00453  -0.03481  -0.05706  -0.00774
   6   27350.0    365.6   0.000122792   0.00148   0.00297  -0.03384   0.01800
   7   26468.5    377.8   0.172203437   2.14185   0.59688  -0.74975  -1.10610
   8   25865.7    386.6   0.272674851   3.47054  -0.47213   1.47238  -1.03909
   9   28962.8    345.3   0.582859363   6.62520   2.21831  -0.62290  -1.14730
  10   31360.4    318.9   0.002421161   0.02542  -0.06031  -0.06119   0.13429
  11   31312.9    319.4   0.000537569   0.00565  -0.05556   0.00204   0.05060
  12   31351.4    319.0   0.001169140   0.01228   0.00120   0.10869   0.02151
  13   17839.4    560.6   0.007321628   0.13511   0.01741   0.04790   0.36403
  14   23365.7    428.0   0.019259573   0.27136   0.45981   0.20003  -0.14116
  15   18074.0    553.3   0.019389528   0.35317   0.28389   0.04171  -0.52042
  16   19151.0    522.2   0.015461821   0.26579   0.11155  -0.50307   0.01630
  17   26349.1    379.5   0.025853051   0.32301   0.43069   0.31343  -0.19819
  18   22153.1    451.4   0.069490050   1.03268   0.35805  -0.77068   0.55726
  19   31592.1    316.5   0.043882315   0.45728  -0.51420  -0.43737   0.03985
  20   24785.2    403.5   0.036806624   0.48889   0.08964  -0.14880  -0.67728
  21   20776.3    481.3   0.026424179   0.41871   0.38201  -0.52146   0.02912
  22   28851.9    346.6   0.002591194   0.02957   0.14202   0.03617   0.08993
  23   35953.7    278.1   0.000988633   0.00905   0.06158   0.02231  -0.06902
  24   35943.4    278.2   0.000070290   0.00064  -0.02233  -0.00128   0.01198
  25   32744.5    305.4   0.010354100   0.10410  -0.03731   0.26656   0.17792
  26   16331.8    612.3   0.009880876   0.19918   0.16191  -0.30822  -0.27922
  27   25789.8    387.8   0.010478456   0.13376   0.20380   0.24941   0.17326
  28   29167.5    342.8   0.014931989   0.16854   0.34432   0.18458  -0.12613
  29   34443.1    290.3   0.035947971   0.34360   0.23621  -0.51975  -0.13289
  30   34497.4    289.9   0.043818765   0.41817   0.29108   0.57591   0.04199
  31   34913.7    286.4   0.028190531   0.26582  -0.01795   0.37008   0.35852
  32   34599.1    289.0   0.123568884   1.17576  -0.52725  -0.21690  -0.92235
  33   37406.0    267.3   0.266070050   2.34170   1.38315   0.57667  -0.30993
  34   32627.7    306.5   0.188068103   1.89760   0.15520  -1.18865   0.67869
  35   35514.2    281.6   0.049587799   0.45967  -0.28820  -0.48025   0.38207
  36   32337.7    309.2   0.096328534   0.98067  -0.96267   0.21274   0.09314
  37   35462.0    282.0   0.007168338   0.06655  -0.23440   0.06205   0.08804
  38   33521.3    298.3   0.035123186   0.34494   0.17359   0.53438  -0.17103
  39   32758.2    305.3   0.005493456   0.05521   0.20775   0.10864  -0.01565
  40   36659.0    272.8   0.000336110   0.00302  -0.03931  -0.03241  -0.02055

-----------------------------------------------------------------------------
         ABSORPTION SPECTRUM VIA TRANSITION VELOCITY DIPOLE MOMENTS
-----------------------------------------------------------------------------
State   Energy    Wavelength   fosc        P2         PX        PY        PZ  
        (cm-1)      (nm)                 (au**2)     (au)      (au)      (au) 
-----------------------------------------------------------------------------
   1   16550.0    604.2   0.000069954   0.00001   0.00170   0.00127  -0.00184
   2   17097.7    584.9   0.000023280   0.00000  -0.00103   0.00071   0.00107
   3   17865.1    559.8   0.000019059   0.00000   0.00093   0.00090   0.00080
   4   25447.6    393.0   0.000382007   0.00007   0.00197   0.00247  -0.00751
   5   25959.7    385.2   0.000526917   0.00009   0.00513   0.00790   0.00216
   6   27350.0    365.6   0.000096058   0.00002  -0.00009   0.00344  -0.00247
   7   26468.5    377.8   0.249184617   0.04508  -0.08454   0.10816   0.16196
   8   25865.7    386.6   0.437297434   0.07731   0.07103  -0.22043   0.15385
   9   28962.8    345.3   0.759745790   0.15039  -0.33244   0.09309   0.17666
  10   31360.4    318.9   0.002803833   0.00060   0.00891   0.00919  -0.02091
  11   31312.9    319.4   0.000638484   0.00014   0.00862  -0.00012  -0.00790
  12   31351.4    319.0   0.001326720   0.00028  -0.00039  -0.01660  -0.00292
  13   17839.4    560.6   0.027231115   0.00332  -0.00327  -0.00316  -0.05744
  14   23365.7    428.0   0.046788805   0.00747  -0.07771  -0.03087   0.02193
  15   18074.0    553.3   0.082441814   0.01018  -0.04613  -0.00613   0.08955
  16   19151.0    522.2   0.053125819   0.00695  -0.01649   0.08172  -0.00193
  17   26349.1    379.5   0.051214979   0.00922  -0.07291  -0.05470   0.03025
  18   22153.1    451.4   0.191095344   0.02893  -0.06301   0.12998  -0.08982
  19   31592.1    316.5   0.058660876   0.01267   0.08600   0.07226  -0.00696
  20   24785.2    403.5   0.082935315   0.01405  -0.01855   0.02654   0.11402
  21   20776.3    481.3   0.079840584   0.01134  -0.06160   0.08684  -0.00156
  22   28851.9    346.6   0.004284953   0.00084  -0.02272  -0.00377  -0.01774
  23   35953.7    278.1   0.000879865   0.00022  -0.01005  -0.00692   0.00820
  24   35943.4    278.2   0.000171593   0.00004   0.00252   0.00273  -0.00532
  25   32744.5    305.4   0.012616161   0.00282   0.00947  -0.04491  -0.02677
  26   16331.8    612.3   0.057437232   0.00641  -0.02405   0.05614   0.05178
  27   25789.8    387.8   0.025266176   0.00445  -0.03784  -0.04657  -0.02921
  28   29167.5    342.8   0.027413333   0.00546  -0.06114  -0.03352   0.02455
  29   34443.1    290.3   0.045171923   0.01063  -0.04369   0.09009   0.02468
  30   34497.4    289.9   0.056353299   0.01329  -0.05464  -0.10128  -0.00664
  31   34913.7    286.4   0.036445175   0.00870   0.00354  -0.06679  -0.06499
  32   34599.1    289.0   0.166268025   0.03932   0.09579   0.04056   0.16881
  33   37406.0    267.3   0.299866158   0.07666  -0.25021  -0.10474   0.05555
  34   32627.7    306.5   0.285810991   0.06373  -0.03024   0.21752  -0.12451
  35   35514.2    281.6   0.062734742   0.01523   0.05105   0.08761  -0.07033
  36   32337.7    309.2   0.152045498   0.03360   0.17783  -0.04106  -0.01716
  37   35462.0    282.0   0.009423666   0.00228   0.04379  -0.01174  -0.01512
  38   33521.3    298.3   0.052826644   0.01210  -0.03200  -0.10018   0.03230
  39   32758.2    305.3   0.008816489   0.00197  -0.04009  -0.01906   0.00186
  40   36659.0    272.8   0.000362836   0.00009   0.00741   0.00505   0.00324

-------------------------------------------------------------------
                             CD SPECTRUM
-------------------------------------------------------------------
State  Energy     Wavelength     R         MX        MY        MZ   
       (cm-1)       (nm)     (1e40*cgs)   (au)      (au)      (au)  
-------------------------------------------------------------------
   1   16550.0    604.2     11.46049  -0.41399  -0.34253   1.03592
   2   17097.7    584.9     -0.71057  -0.35317  -1.01199  -0.48371
   3   17865.1    559.8     16.40867  -1.04692   0.48415  -0.23461
   4   25447.6    393.0     -2.30335  -0.02310   0.06257  -0.09444
   5   25959.7    385.2     -1.84179   0.03310   0.04222   0.04460
   6   27350.0    365.6     -0.65156   0.01635   0.03155  -0.02016
   7   26468.5    377.8    -340.86133   0.33563   0.39243   0.56877
   8   25865.7    386.6    -404.85720  -0.63878  -0.19026   0.84708
   9   28962.8    345.3    816.93913   0.38698  -0.94267  -0.25031
  10   31360.4    318.9     20.33238  -0.05171  -0.27615   0.17210
  11   31312.9    319.4    -10.76448   0.31928   0.07475  -0.10366
  12   31351.4    319.0     16.38789   0.09749   0.32591  -0.03619
  13   17839.4    560.6     13.47165  -0.05529  -0.19757   0.10714
  14   23365.7    428.0    -55.45888  -0.17285  -0.11285   0.11042
  15   18074.0    553.3     -7.79080  -0.13154  -0.15108  -0.05211
  16   19151.0    522.2    -12.53336   0.04237   0.06234   0.00308
  17   26349.1    379.5    -22.16572   0.05426  -0.07101   0.24285
  18   22153.1    451.4    -34.22021   0.20475   0.13471  -0.07551
  19   31592.1    316.5     22.98798   0.06095  -0.16515   0.19741
  20   24785.2    403.5    -68.61015  -0.30150   0.21543   0.12764
  21   20776.3    481.3     -1.69223  -0.06057  -0.03616   0.02381
  22   28851.9    346.6      7.96604   0.33718  -0.10579  -0.30207
  23   35953.7    278.1      7.39770   0.47203   0.03487   0.20506
  24   35943.4    278.2      2.66159  -0.15362   0.48583   0.23692
  25   32744.5    305.4      5.13886  -0.33226   0.04460  -0.07523
  26   16331.8    612.3    -11.48422  -0.01392   0.09356  -0.02410
  27   25789.8    387.8    -19.95263   0.07001  -0.13509  -0.13215
  28   29167.5    342.8     -6.19071  -0.04666  -0.09563  -0.16323
  29   34443.1    290.3     21.73484   0.29000  -0.02808   0.27838
  30   34497.4    289.9    -35.53243   0.36759  -0.28002  -0.50250
  31   34913.7    286.4    -118.40674  -0.04524   0.05458  -0.75914
  32   34599.1    289.0    -478.45311  -0.34438   0.21376   1.24689
  33   37406.0    267.3    -24.07427   0.10637  -0.12489   0.40708
  34   32627.7    306.5    305.77300   0.48153  -0.47804   0.00829
  35   35514.2    281.6    130.59696   0.12334  -0.63985   0.01380
  36   32337.7    309.2    116.34203  -0.22952   0.25348  -0.30171
  37   35462.0    282.0     -8.98095  -0.02875  -0.33101  -0.05961
  38   33521.3    298.3    -100.65021  -0.31478  -0.18816   0.34090
  39   32758.2    305.3     16.39873   0.20129  -0.04999   0.10243
  40   36659.0    272.8      2.00415  -0.02814  -0.09702  -0.00002

-------------------------------------------------------------------
         CD SPECTRUM VIA TRANSITION VELOCITY DIPOLE MOMENTS        
-------------------------------------------------------------------
State  Energy     Wavelength     R         MX        MY        MZ   
       (cm-1)       (nm)     (1e40*cgs)   (au)      (au)      (au)  
-------------------------------------------------------------------
   1   16550.0    604.2     19.06696  -0.41399  -0.34253   1.03592
   2   17097.7    584.9      5.28643  -0.35317  -1.01199  -0.48371
   3   17865.1    559.8      4.22114  -1.04692   0.48415  -0.23461
   4   25447.6    393.0     -3.32838  -0.02310   0.06257  -0.09444
   5   25959.7    385.2     -2.39156   0.03310   0.04222   0.04460
   6   27350.0    365.6     -0.59342   0.01635   0.03155  -0.02016
   7   26468.5    377.8    -415.13084   0.33563   0.39243   0.56877
   8   25865.7    386.6    -507.60869  -0.63878  -0.19026   0.84708
   9   28962.8    345.3    931.07686   0.38698  -0.94267  -0.25031
  10   31360.4    318.9     21.76253  -0.05171  -0.27615   0.17210
  11   31312.9    319.4    -11.76555   0.31928   0.07475  -0.10366
  12   31351.4    319.0     17.63147   0.09749   0.32591  -0.03619
  13   17839.4    560.6     31.01990  -0.05529  -0.19757   0.10714
  14   23365.7    428.0    -85.62414  -0.17285  -0.11285   0.11042
  15   18074.0    553.3    -13.32696  -0.13154  -0.15108  -0.05211
  16   19151.0    522.2    -23.71577   0.04237   0.06234   0.00308
  17   26349.1    379.5    -28.56480   0.05426  -0.07101   0.24285
  18   22153.1    451.4    -53.20487   0.20475   0.13471  -0.07551
  19   31592.1    316.5     26.42279   0.06095  -0.16515   0.19741
  20   24785.2    403.5    -107.97759  -0.30150   0.21543   0.12764
  21   20776.3    481.3     -2.75849  -0.06057  -0.03616   0.02381
  22   28851.9    346.6      6.83066   0.33718  -0.10579  -0.30207
  23   35953.7    278.1      9.51164   0.47203   0.03487   0.20506
  24   35943.4    278.2      0.92310  -0.15362   0.48583   0.23692
  25   32744.5    305.4      9.91433  -0.33226   0.04460  -0.07523
  26   16331.8    612.3    -27.48923  -0.01392   0.09356  -0.02410
  27   25789.8    387.8    -30.09958   0.07001  -0.13509  -0.13215
  28   29167.5    342.8     -7.27574  -0.04666  -0.09563  -0.16323
  29   34443.1    290.3     25.01920   0.29000  -0.02808   0.27838
  30   34497.4    289.9    -34.82212   0.36759  -0.28002  -0.50250
  31   34913.7    286.4    -134.92887  -0.04524   0.05458  -0.75914
  32   34599.1    289.0    -556.75467  -0.34438   0.21376   1.24689
  33   37406.0    267.3    -25.11500   0.10637  -0.12489   0.40708
  34   32627.7    306.5    379.21845   0.48153  -0.47804   0.00829
  35   35514.2    281.6    147.80150   0.12334  -0.63985   0.01380
  36   32337.7    309.2    147.33249  -0.22952   0.25348  -0.30171
  37   35462.0    282.0    -10.29280  -0.02875  -0.33101  -0.05961
  38   33521.3    298.3    -123.26004  -0.31478  -0.18816   0.34090
  39   32758.2    305.3     21.87858   0.20129  -0.04999   0.10243
  40   36659.0    272.8      1.97233  -0.02814  -0.09702  -0.00002

Total run time:    11960.787 sec

           *** ORCA-CIS/TD-DFT FINISHED WITHOUT ERROR ***

Maximum memory used throughout the entire CIS-calculation: 4581.0 MB

-----------------------
CIS/TD-DFT TOTAL ENERGY
-----------------------

    E(SCF)  =  -3588.497248870 Eh
    DE(CIS) =      0.075407507 Eh (Root  1)
    ----------------------------- ---------
    E(tot)  =  -3588.421841363 Eh


-------------------------   --------------------
FINAL SINGLE POINT ENERGY     -3588.421841363194
-------------------------   --------------------


                            ***************************************
                            *     ORCA property calculations      *
                            ***************************************


  WARNING: The energy has been calculated at the MP2 level but the densities
           used in the property calculations are still SCF densities
           MP2 response densities have not been calculated 
           use %mp2 Density relaxed end
           or  %mp2 Density unrelaxed end

                                    ---------------------
                                    Active property flags
                                    ---------------------
   (+) Dipole Moment


------------------------------------------------------------------------------
                       ORCA ELECTRIC PROPERTIES CALCULATION
------------------------------------------------------------------------------

Dipole Moment Calculation                       ... on
Quadrupole Moment Calculation                   ... off
Polarizability Calculation                      ... off
GBWName                                         ... FeC_4_B2PLYP_def2SVP.gbw
Electron density                                ... FeC_4_B2PLYP_def2SVP.scfp
The origin for moment calculation is the CENTER OF MASS  = ( 0.008863, -0.032936  0.010296)

-------------
DIPOLE MOMENT
-------------
                                X             Y             Z
Electronic contribution:      1.35572      -4.16587       1.81198
Nuclear contribution   :     -3.36808      12.51579      -3.91256
                        -----------------------------------------
Total Dipole Moment    :     -2.01236       8.34992      -2.10058
                        -----------------------------------------
Magnitude (a.u.)       :      8.84213
Magnitude (Debye)      :     22.47490



--------------------
Rotational spectrum 
--------------------
 
Rotational constants in cm-1:     0.002342     0.001850     0.001765 
Rotational constants in MHz :    70.207339    55.448862    52.928199 

 Dipole components along the rotational axes: 
x,y,z [a.u.] :    -1.997879     8.402807     1.893281 
x,y,z [Debye]:    -5.078206    21.358239     4.812337 

 

Timings for individual modules:

Sum of individual times         ...    12620.515 sec (= 210.342 min)
GTO integral calculation        ...        5.219 sec (=   0.087 min)   0.0 %
SCF iterations                  ...      455.811 sec (=   7.597 min)   3.6 %
MP2 module                      ...      195.607 sec (=   3.260 min)   1.5 %
CIS module                      ...    11963.878 sec (= 199.398 min)  94.8 %
                             ****ORCA TERMINATED NORMALLY****
TOTAL RUN TIME: 0 days 3 hours 30 minutes 25 seconds 770 msec
