 Entering Gaussian System, Link 0=g16
 Input=/home/png4rjv/photocat/TMPC_bench/gaussian/TPSS/RESTART/FeC_4_TPSS_def2SVP.gjf
 Output=/home/png4rjv/photocat/TMPC_bench/gaussian/TPSS/RESTART/FeC_4_TPSS_def2SVP.log
 Initial command:
 /opt/software/packages/g16/l1.exe "/scratch/ligandum/png4rjv/3095205/Gau-1264064.inp" -scrdir="/scratch/ligandum/png4rjv/3095205/"
 Default is to use a total of  16 processors:
                               16 via shared-memory
                                1 via Linda
 Entering Link 1 = /opt/software/packages/g16/l1.exe PID=   1264068.
  
 Copyright (c) 1988-2021, Gaussian, Inc.  All Rights Reserved.
  
 This is part of the Gaussian(R) 16 program.  It is based on
 the Gaussian(R) 09 system (copyright 2009, Gaussian, Inc.),
 the Gaussian(R) 03 system (copyright 2003, Gaussian, Inc.),
 the Gaussian(R) 98 system (copyright 1998, Gaussian, Inc.),
 the Gaussian(R) 94 system (copyright 1995, Gaussian, Inc.),
 the Gaussian 92(TM) system (copyright 1992, Gaussian, Inc.),
 the Gaussian 90(TM) system (copyright 1990, Gaussian, Inc.),
 the Gaussian 88(TM) system (copyright 1988, Gaussian, Inc.),
 the Gaussian 86(TM) system (copyright 1986, Carnegie Mellon
 University), and the Gaussian 82(TM) system (copyright 1983,
 Carnegie Mellon University). Gaussian is a federally registered
 trademark of Gaussian, Inc.
  
 This software contains proprietary and confidential information,
 including trade secrets, belonging to Gaussian, Inc.
  
 This software is provided under written license and may be
 used, copied, transmitted, or stored only in accord with that
 written license.
  
 The following legend is applicable only to US Government
 contracts under FAR:
  
                    RESTRICTED RIGHTS LEGEND
  
 Use, reproduction and disclosure by the US Government is
 subject to restrictions as set forth in subparagraphs (a)
 and (c) of the Commercial Computer Software - Restricted
 Rights clause in FAR 52.227-19.
  
 Gaussian, Inc.
 340 Quinnipiac St., Bldg. 40, Wallingford CT 06492
  
  
 ---------------------------------------------------------------
 Warning -- This program may not be used in any manner that
 competes with the business of Gaussian, Inc. or will provide
 assistance to any competitor of Gaussian, Inc.  The licensee
 of this program is prohibited from giving any competitor of
 Gaussian, Inc. access to this program.  By using this program,
 the user acknowledges that Gaussian, Inc. is engaged in the
 business of creating and licensing software in the field of
 computational chemistry and represents and warrants to the
 licensee that it is not a competitor of Gaussian, Inc. and that
 it will not use this program in any manner prohibited above.
 ---------------------------------------------------------------
  

 Cite this work as:
 Gaussian 16, Revision C.02,
 M. J. Frisch, G. W. Trucks, H. B. Schlegel, G. E. Scuseria, 
 M. A. Robb, J. R. Cheeseman, G. Scalmani, V. Barone, 
 G. A. Petersson, H. Nakatsuji, X. Li, M. Caricato, A. V. Marenich, 
 J. Bloino, B. G. Janesko, R. Gomperts, B. Mennucci, H. P. Hratchian, 
 J. V. Ortiz, A. F. Izmaylov, J. L. Sonnenberg, D. Williams-Young, 
 F. Ding, F. Lipparini, F. Egidi, J. Goings, B. Peng, A. Petrone, 
 T. Henderson, D. Ranasinghe, V. G. Zakrzewski, J. Gao, N. Rega, 
 G. Zheng, W. Liang, M. Hada, M. Ehara, K. Toyota, R. Fukuda, 
 J. Hasegawa, M. Ishida, T. Nakajima, Y. Honda, O. Kitao, H. Nakai, 
 T. Vreven, K. Throssell, J. A. Montgomery, Jr., J. E. Peralta, 
 F. Ogliaro, M. J. Bearpark, J. J. Heyd, E. N. Brothers, K. N. Kudin, 
 V. N. Staroverov, T. A. Keith, R. Kobayashi, J. Normand, 
 K. Raghavachari, A. P. Rendell, J. C. Burant, S. S. Iyengar, 
 J. Tomasi, M. Cossi, J. M. Millam, M. Klene, C. Adamo, R. Cammi, 
 J. W. Ochterski, R. L. Martin, K. Morokuma, O. Farkas, 
 J. B. Foresman, and D. J. Fox, Gaussian, Inc., Wallingford CT, 2019.
 
 ******************************************
 Gaussian 16:  AS64L-G16RevC.02  7-Dec-2021
                30-Oct-2023 
 ******************************************
 %chk=cp.chk
 %NProcshared=16
 Will use up to   16 processors via shared memory.
 Default route: MaxDisk=500GB
 ----------------------------------------------------------------------
 #p TPSSTPSS/def2svp opt=(tight,maxstep=15) Symmetry=None int=ultrafine
  scrf=(SMD,solvent=Acetonitrile)
 ----------------------------------------------------------------------
 1/7=10,8=15,18=20,19=15,26=6,38=1/1,3;
 2/9=110,12=2,15=3,17=6,18=5,40=1/2;
 3/5=43,7=101,11=2,25=1,30=1,70=32201,71=1,72=2,74=2523,75=-5/1,2,3;
 4//1;
 5/5=2,38=5,53=2/2;
 6/7=2,8=2,9=2,10=2,28=1/1;
 7/30=1/1,2,3,16;
 1/7=10,8=15,18=20,19=15,26=6/3(2);
 2/9=110,15=3/2;
 99//99;
 2/9=110,15=3/2;
 3/5=43,7=101,11=2,25=1,30=1,70=32205,71=1,72=2,74=2523,75=-5/1,2,3;
 4/5=5,16=3,69=1/1;
 5/5=2,38=5,53=2/2;
 7/30=1/1,2,3,16;
 1/7=10,8=15,18=20,19=15,26=6/3(-5);
 2/9=110,15=3/2;
 6/7=2,8=2,9=2,10=2,19=2,28=1/1;
 99/9=1/99;
 Leave Link    1 at Mon Oct 30 10:32:20 2023, MaxMem=           0 cpu:               0.1 elap:               0.1
 (Enter /opt/software/packages/g16/l101.exe)
 -----
 Title
 -----
 Symbolic Z-matrix:
 Charge =  2 Multiplicity = 1
 Fe                   -0.19488   0.99138  -0.15881 
 N                    -0.49104   2.90734  -0.52372 
 C                     0.416     3.74112   0.07917 
 C                    -1.40958   3.47345  -1.33543 
 C                     0.39977   5.13629  -0.08257 
 C                    -1.49049   4.84954  -1.55305 
 H                    -2.11391   2.7906   -1.83764 
 C                    -0.57912   5.70342  -0.92081 
 H                     1.14178   5.75272   0.42684 
 H                    -2.26056   5.23701  -2.22231 
 H                    -0.621     6.78791  -1.07069 
 C                     1.38458   3.04852   0.88908 
 H                     2.14141   3.59796   1.46425 
 N                     1.31515   1.74277   0.91727 
 C                     2.32975   1.06273   1.6586 
 C                     3.70032   1.40059   1.46187 
 C                     1.98776   0.06722   2.59897 
 C                     4.7085    0.73489   2.1666 
 H                     3.95872   2.18989   0.73512 
 C                     3.01851  -0.56479   3.29668 
 H                     0.9464   -0.18934   2.82108 
 C                     4.37302  -0.26881   3.10023 
 H                     5.76586   1.0012    1.9925 
 N                    -1.30546   0.91824   1.47195 
 C                    -1.49894  -0.34981   1.96399 
 C                    -1.86208   1.94956   2.13122 
 C                    -2.27561  -0.59654   3.09739 
 C                    -2.64067   1.77383   3.2849 
 H                    -1.69129   2.95081   1.72954 
 C                    -2.86144   0.47958   3.77373 
 H                    -2.39621  -1.62719   3.44227 
 H                    -3.06522   2.64905   3.7759 
 H                    -3.47837   0.31281   4.66163 
 C                    -0.76203  -1.36405   1.24582 
 H                    -0.83058  -2.41823   1.53224 
 N                     0.01847  -0.94714   0.28012 
 C                     0.74453  -1.92175  -0.47114 
 C                     0.11294  -3.08095  -0.96331 
 C                     2.11493  -1.70836  -0.7366 
 C                     0.82964  -4.02818  -1.70823 
 H                    -0.95374  -3.23826  -0.76361 
 C                     2.80057  -2.66489  -1.48668 
 H                     2.64092  -0.83446  -0.35043 
 C                     2.18801  -3.83216  -1.985 
 H                     0.32318  -4.92119  -2.08074 
 N                     0.80951   0.89351  -1.86392 
 C                     0.03767   0.53612  -2.93667 
 C                     2.11149   1.1864   -2.08251 
 C                     0.54976   0.45514  -4.24449 
 C                     2.68736   1.13326  -3.36367 
 H                     2.72432   1.4525   -1.21478 
 C                     1.89718   0.76554  -4.46379 
 H                    -0.11622   0.15848  -5.06785 
 H                     3.74853   1.38093  -3.47406 
 H                     2.32897   0.72228  -5.47174 
 C                    -1.33164   0.22431  -2.59919 
 H                    -2.03479  -0.13422  -3.35627 
 N                    -1.66905   0.39831  -1.34501 
 C                    -2.98805  -0.01161  -0.95244 
 C                    -3.3984   -1.33185  -1.2103 
 C                    -3.85916   0.88531  -0.30708 
 C                    -4.68442  -1.72226  -0.8008 
 H                    -2.73578  -2.04753  -1.69637 
 C                    -5.14562   0.46407   0.07731 
 H                    -3.55584   1.91514  -0.11715 
 C                    -5.5689   -0.84079  -0.16487 
 H                    -5.82431   1.18186   0.55829 
 N                    -5.10009  -3.11132  -1.0548 
 O                    -4.26684  -3.88885  -1.54923 
 O                    -6.24968  -3.4411   -0.74349 
 N                     4.23494  -2.42915  -1.7719 
 O                     4.84683  -3.30616  -2.38631 
 O                     4.73093  -1.37065  -1.38665 
 N                     2.63533  -1.59233   4.30666 
 O                     1.43665  -1.80168   4.49779 
 O                     3.55198  -2.18486   4.88617 
 H                    -6.56535  -1.19889   0.13736 
 H                     2.77212  -4.54391  -2.56985 
 H                     5.14551  -0.80282   3.65867 
 
 ITRead=  0  0  0  0  0  0  0  0  0  0  0  0  0  0  0  0  0  0  0  0
 ITRead=  0  0  0  0  0  0  0  0  0  0  0  0  0  0  0  0  0  0  0  0
 ITRead=  0  0  0  0  0  0  0  0  0  0  0  0  0  0  0  0  0  0  0  0
 ITRead=  0  0  0  0  0  0  0  0  0  0  0  0  0  0  0  0  0  0  0
 MicOpt= -1 -1 -1 -1 -1 -1 -1 -1 -1 -1 -1 -1 -1 -1 -1 -1 -1 -1 -1 -1
 MicOpt= -1 -1 -1 -1 -1 -1 -1 -1 -1 -1 -1 -1 -1 -1 -1 -1 -1 -1 -1 -1
 MicOpt= -1 -1 -1 -1 -1 -1 -1 -1 -1 -1 -1 -1 -1 -1 -1 -1 -1 -1 -1 -1
 MicOpt= -1 -1 -1 -1 -1 -1 -1 -1 -1 -1 -1 -1 -1 -1 -1 -1 -1 -1 -1
 NAtoms=     79 NQM=       79 NQMF=       0 NMMI=      0 NMMIF=      0
                NMic=       0 NMicF=      0.
                    Isotopes and Nuclear Properties:
 (Nuclear quadrupole moments (NQMom) in fm**2, nuclear magnetic moments (NMagM)
  in nuclear magnetons)

  Atom         1           2           3           4           5           6           7           8           9          10
 IAtWgt=          56          14          12          12          12          12           1          12           1           1
 AtmWgt=  55.9349393  14.0030740  12.0000000  12.0000000  12.0000000  12.0000000   1.0078250  12.0000000   1.0078250   1.0078250
 NucSpn=           0           2           0           0           0           0           1           0           1           1
 AtZEff=  -0.0000000  -0.0000000  -0.0000000  -0.0000000  -0.0000000  -0.0000000  -0.0000000  -0.0000000  -0.0000000  -0.0000000
 NQMom=    0.0000000   2.0440000   0.0000000   0.0000000   0.0000000   0.0000000   0.0000000   0.0000000   0.0000000   0.0000000
 NMagM=    0.0000000   0.4037610   0.0000000   0.0000000   0.0000000   0.0000000   2.7928460   0.0000000   2.7928460   2.7928460
 AtZNuc=  26.0000000   7.0000000   6.0000000   6.0000000   6.0000000   6.0000000   1.0000000   6.0000000   1.0000000   1.0000000

  Atom        11          12          13          14          15          16          17          18          19          20
 IAtWgt=           1          12           1          14          12          12          12          12           1          12
 AtmWgt=   1.0078250  12.0000000   1.0078250  14.0030740  12.0000000  12.0000000  12.0000000  12.0000000   1.0078250  12.0000000
 NucSpn=           1           0           1           2           0           0           0           0           1           0
 AtZEff=  -0.0000000  -0.0000000  -0.0000000  -0.0000000  -0.0000000  -0.0000000  -0.0000000  -0.0000000  -0.0000000  -0.0000000
 NQMom=    0.0000000   0.0000000   0.0000000   2.0440000   0.0000000   0.0000000   0.0000000   0.0000000   0.0000000   0.0000000
 NMagM=    2.7928460   0.0000000   2.7928460   0.4037610   0.0000000   0.0000000   0.0000000   0.0000000   2.7928460   0.0000000
 AtZNuc=   1.0000000   6.0000000   1.0000000   7.0000000   6.0000000   6.0000000   6.0000000   6.0000000   1.0000000   6.0000000

  Atom        21          22          23          24          25          26          27          28          29          30
 IAtWgt=           1          12           1          14          12          12          12          12           1          12
 AtmWgt=   1.0078250  12.0000000   1.0078250  14.0030740  12.0000000  12.0000000  12.0000000  12.0000000   1.0078250  12.0000000
 NucSpn=           1           0           1           2           0           0           0           0           1           0
 AtZEff=  -0.0000000  -0.0000000  -0.0000000  -0.0000000  -0.0000000  -0.0000000  -0.0000000  -0.0000000  -0.0000000  -0.0000000
 NQMom=    0.0000000   0.0000000   0.0000000   2.0440000   0.0000000   0.0000000   0.0000000   0.0000000   0.0000000   0.0000000
 NMagM=    2.7928460   0.0000000   2.7928460   0.4037610   0.0000000   0.0000000   0.0000000   0.0000000   2.7928460   0.0000000
 AtZNuc=   1.0000000   6.0000000   1.0000000   7.0000000   6.0000000   6.0000000   6.0000000   6.0000000   1.0000000   6.0000000

  Atom        31          32          33          34          35          36          37          38          39          40
 IAtWgt=           1           1           1          12           1          14          12          12          12          12
 AtmWgt=   1.0078250   1.0078250   1.0078250  12.0000000   1.0078250  14.0030740  12.0000000  12.0000000  12.0000000  12.0000000
 NucSpn=           1           1           1           0           1           2           0           0           0           0
 AtZEff=  -0.0000000  -0.0000000  -0.0000000  -0.0000000  -0.0000000  -0.0000000  -0.0000000  -0.0000000  -0.0000000  -0.0000000
 NQMom=    0.0000000   0.0000000   0.0000000   0.0000000   0.0000000   2.0440000   0.0000000   0.0000000   0.0000000   0.0000000
 NMagM=    2.7928460   2.7928460   2.7928460   0.0000000   2.7928460   0.4037610   0.0000000   0.0000000   0.0000000   0.0000000
 AtZNuc=   1.0000000   1.0000000   1.0000000   6.0000000   1.0000000   7.0000000   6.0000000   6.0000000   6.0000000   6.0000000

  Atom        41          42          43          44          45          46          47          48          49          50
 IAtWgt=           1          12           1          12           1          14          12          12          12          12
 AtmWgt=   1.0078250  12.0000000   1.0078250  12.0000000   1.0078250  14.0030740  12.0000000  12.0000000  12.0000000  12.0000000
 NucSpn=           1           0           1           0           1           2           0           0           0           0
 AtZEff=  -0.0000000  -0.0000000  -0.0000000  -0.0000000  -0.0000000  -0.0000000  -0.0000000  -0.0000000  -0.0000000  -0.0000000
 NQMom=    0.0000000   0.0000000   0.0000000   0.0000000   0.0000000   2.0440000   0.0000000   0.0000000   0.0000000   0.0000000
 NMagM=    2.7928460   0.0000000   2.7928460   0.0000000   2.7928460   0.4037610   0.0000000   0.0000000   0.0000000   0.0000000
 AtZNuc=   1.0000000   6.0000000   1.0000000   6.0000000   1.0000000   7.0000000   6.0000000   6.0000000   6.0000000   6.0000000

  Atom        51          52          53          54          55          56          57          58          59          60
 IAtWgt=           1          12           1           1           1          12           1          14          12          12
 AtmWgt=   1.0078250  12.0000000   1.0078250   1.0078250   1.0078250  12.0000000   1.0078250  14.0030740  12.0000000  12.0000000
 NucSpn=           1           0           1           1           1           0           1           2           0           0
 AtZEff=  -0.0000000  -0.0000000  -0.0000000  -0.0000000  -0.0000000  -0.0000000  -0.0000000  -0.0000000  -0.0000000  -0.0000000
 NQMom=    0.0000000   0.0000000   0.0000000   0.0000000   0.0000000   0.0000000   0.0000000   2.0440000   0.0000000   0.0000000
 NMagM=    2.7928460   0.0000000   2.7928460   2.7928460   2.7928460   0.0000000   2.7928460   0.4037610   0.0000000   0.0000000
 AtZNuc=   1.0000000   6.0000000   1.0000000   1.0000000   1.0000000   6.0000000   1.0000000   7.0000000   6.0000000   6.0000000

  Atom        61          62          63          64          65          66          67          68          69          70
 IAtWgt=          12          12           1          12           1          12           1          14          16          16
 AtmWgt=  12.0000000  12.0000000   1.0078250  12.0000000   1.0078250  12.0000000   1.0078250  14.0030740  15.9949146  15.9949146
 NucSpn=           0           0           1           0           1           0           1           2           0           0
 AtZEff=  -0.0000000  -0.0000000  -0.0000000  -0.0000000  -0.0000000  -0.0000000  -0.0000000  -0.0000000  -0.0000000  -0.0000000
 NQMom=    0.0000000   0.0000000   0.0000000   0.0000000   0.0000000   0.0000000   0.0000000   2.0440000   0.0000000   0.0000000
 NMagM=    0.0000000   0.0000000   2.7928460   0.0000000   2.7928460   0.0000000   2.7928460   0.4037610   0.0000000   0.0000000
 AtZNuc=   6.0000000   6.0000000   1.0000000   6.0000000   1.0000000   6.0000000   1.0000000   7.0000000   8.0000000   8.0000000

  Atom        71          72          73          74          75          76          77          78          79
 IAtWgt=          14          16          16          14          16          16           1           1           1
 AtmWgt=  14.0030740  15.9949146  15.9949146  14.0030740  15.9949146  15.9949146   1.0078250   1.0078250   1.0078250
 NucSpn=           2           0           0           2           0           0           1           1           1
 AtZEff=  -0.0000000  -0.0000000  -0.0000000  -0.0000000  -0.0000000  -0.0000000  -0.0000000  -0.0000000  -0.0000000
 NQMom=    2.0440000   0.0000000   0.0000000   2.0440000   0.0000000   0.0000000   0.0000000   0.0000000   0.0000000
 NMagM=    0.4037610   0.0000000   0.0000000   0.4037610   0.0000000   0.0000000   2.7928460   2.7928460   2.7928460
 AtZNuc=   7.0000000   8.0000000   8.0000000   7.0000000   8.0000000   8.0000000   1.0000000   1.0000000   1.0000000
 Leave Link  101 at Mon Oct 30 10:32:21 2023, MaxMem=  4294967296 cpu:               0.1 elap:               0.1
 (Enter /opt/software/packages/g16/l103.exe)

 GradGradGradGradGradGradGradGradGradGradGradGradGradGradGradGradGradGrad
 Berny optimization.
 Initialization pass.
                           ----------------------------
                           !    Initial Parameters    !
                           ! (Angstroms and Degrees)  !
 --------------------------                            --------------------------
 ! Name  Definition              Value          Derivative Info.                !
 --------------------------------------------------------------------------------
 ! R1    R(1,2)                  1.9728         estimate D2E/DX2                !
 ! R2    R(1,14)                 2.0007         estimate D2E/DX2                !
 ! R3    R(1,24)                 1.9744         estimate D2E/DX2                !
 ! R4    R(1,36)                 1.999          estimate D2E/DX2                !
 ! R5    R(1,46)                 1.9814         estimate D2E/DX2                !
 ! R6    R(1,58)                 1.9829         estimate D2E/DX2                !
 ! R7    R(2,3)                  1.3716         estimate D2E/DX2                !
 ! R8    R(2,4)                  1.3502         estimate D2E/DX2                !
 ! R9    R(3,5)                  1.4046         estimate D2E/DX2                !
 ! R10   R(3,12)                 1.4401         estimate D2E/DX2                !
 ! R11   R(4,6)                  1.3955         estimate D2E/DX2                !
 ! R12   R(4,7)                  1.1021         estimate D2E/DX2                !
 ! R13   R(5,8)                  1.408          estimate D2E/DX2                !
 ! R14   R(5,9)                  1.0909         estimate D2E/DX2                !
 ! R15   R(6,8)                  1.3998         estimate D2E/DX2                !
 ! R16   R(6,10)                 1.0914         estimate D2E/DX2                !
 ! R17   R(8,11)                 1.0956         estimate D2E/DX2                !
 ! R18   R(12,13)                1.098          estimate D2E/DX2                !
 ! R19   R(12,14)                1.3079         estimate D2E/DX2                !
 ! R20   R(14,15)                1.4288         estimate D2E/DX2                !
 ! R21   R(15,16)                1.4252         estimate D2E/DX2                !
 ! R22   R(15,17)                1.4115         estimate D2E/DX2                !
 ! R23   R(16,18)                1.3987         estimate D2E/DX2                !
 ! R24   R(16,19)                1.1036         estimate D2E/DX2                !
 ! R25   R(17,20)                1.396          estimate D2E/DX2                !
 ! R26   R(17,21)                1.0953         estimate D2E/DX2                !
 ! R27   R(18,22)                1.4113         estimate D2E/DX2                !
 ! R28   R(18,23)                1.1042         estimate D2E/DX2                !
 ! R29   R(20,22)                1.4003         estimate D2E/DX2                !
 ! R30   R(20,74)                1.4909         estimate D2E/DX2                !
 ! R31   R(22,79)                1.0926         estimate D2E/DX2                !
 ! R32   R(24,25)                1.3739         estimate D2E/DX2                !
 ! R33   R(24,26)                1.3447         estimate D2E/DX2                !
 ! R34   R(25,27)                1.396          estimate D2E/DX2                !
 ! R35   R(25,34)                1.4448         estimate D2E/DX2                !
 ! R36   R(26,28)                1.4029         estimate D2E/DX2                !
 ! R37   R(26,29)                1.0923         estimate D2E/DX2                !
 ! R38   R(27,30)                1.3995         estimate D2E/DX2                !
 ! R39   R(27,31)                1.0935         estimate D2E/DX2                !
 ! R40   R(28,30)                1.401          estimate D2E/DX2                !
 ! R41   R(28,32)                1.0896         estimate D2E/DX2                !
 ! R42   R(30,33)                1.094          estimate D2E/DX2                !
 ! R43   R(34,35)                1.0945         estimate D2E/DX2                !
 ! R44   R(34,36)                1.3098         estimate D2E/DX2                !
 ! R45   R(36,37)                1.4288         estimate D2E/DX2                !
 ! R46   R(37,38)                1.4089         estimate D2E/DX2                !
 ! R47   R(37,39)                1.4121         estimate D2E/DX2                !
 ! R48   R(38,40)                1.4021         estimate D2E/DX2                !
 ! R49   R(38,41)                1.0966         estimate D2E/DX2                !
 ! R50   R(39,42)                1.3956         estimate D2E/DX2                !
 ! R51   R(39,43)                1.0906         estimate D2E/DX2                !
 ! R52   R(40,44)                1.4001         estimate D2E/DX2                !
 ! R53   R(40,45)                1.0921         estimate D2E/DX2                !
 ! R54   R(42,44)                1.4093         estimate D2E/DX2                !
 ! R55   R(42,71)                1.4813         estimate D2E/DX2                !
 ! R56   R(44,78)                1.0908         estimate D2E/DX2                !
 ! R57   R(46,47)                1.369          estimate D2E/DX2                !
 ! R58   R(46,48)                1.3523         estimate D2E/DX2                !
 ! R59   R(47,49)                1.4068         estimate D2E/DX2                !
 ! R60   R(47,56)                1.4443         estimate D2E/DX2                !
 ! R61   R(48,50)                1.4056         estimate D2E/DX2                !
 ! R62   R(48,51)                1.0951         estimate D2E/DX2                !
 ! R63   R(49,52)                1.4            estimate D2E/DX2                !
 ! R64   R(49,53)                1.0998         estimate D2E/DX2                !
 ! R65   R(50,52)                1.4035         estimate D2E/DX2                !
 ! R66   R(50,54)                1.0953         estimate D2E/DX2                !
 ! R67   R(52,55)                1.0974         estimate D2E/DX2                !
 ! R68   R(56,57)                1.0937         estimate D2E/DX2                !
 ! R69   R(56,58)                1.3104         estimate D2E/DX2                !
 ! R70   R(58,59)                1.4359         estimate D2E/DX2                !
 ! R71   R(59,60)                1.4064         estimate D2E/DX2                !
 ! R72   R(59,61)                1.407          estimate D2E/DX2                !
 ! R73   R(60,62)                1.405          estimate D2E/DX2                !
 ! R74   R(60,63)                1.0897         estimate D2E/DX2                !
 ! R75   R(61,64)                1.4072         estimate D2E/DX2                !
 ! R76   R(61,65)                1.0902         estimate D2E/DX2                !
 ! R77   R(62,66)                1.4013         estimate D2E/DX2                !
 ! R78   R(62,68)                1.472          estimate D2E/DX2                !
 ! R79   R(64,66)                1.393          estimate D2E/DX2                !
 ! R80   R(64,67)                1.0987         estimate D2E/DX2                !
 ! R81   R(66,77)                1.1011         estimate D2E/DX2                !
 ! R82   R(68,69)                1.2423         estimate D2E/DX2                !
 ! R83   R(68,70)                1.2358         estimate D2E/DX2                !
 ! R84   R(71,72)                1.2333         estimate D2E/DX2                !
 ! R85   R(71,73)                1.2308         estimate D2E/DX2                !
 ! R86   R(74,75)                1.2317         estimate D2E/DX2                !
 ! R87   R(74,76)                1.2358         estimate D2E/DX2                !
 ! A1    A(2,1,14)              81.2598         estimate D2E/DX2                !
 ! A2    A(2,1,24)              95.9877         estimate D2E/DX2                !
 ! A3    A(2,1,46)              87.9877         estimate D2E/DX2                !
 ! A4    A(2,1,58)              93.9113         estimate D2E/DX2                !
 ! A5    A(14,1,24)             89.6684         estimate D2E/DX2                !
 ! A6    A(14,1,36)             99.5293         estimate D2E/DX2                !
 ! A7    A(14,1,46)             95.6711         estimate D2E/DX2                !
 ! A8    A(24,1,36)             80.9528         estimate D2E/DX2                !
 ! A9    A(24,1,58)             93.7176         estimate D2E/DX2                !
 ! A10   A(36,1,46)             94.9887         estimate D2E/DX2                !
 ! A11   A(36,1,58)             85.4493         estimate D2E/DX2                !
 ! A12   A(46,1,58)             81.2156         estimate D2E/DX2                !
 ! A13   A(1,2,3)              114.1915         estimate D2E/DX2                !
 ! A14   A(1,2,4)              128.3557         estimate D2E/DX2                !
 ! A15   A(3,2,4)              117.3379         estimate D2E/DX2                !
 ! A16   A(2,3,5)              123.0608         estimate D2E/DX2                !
 ! A17   A(2,3,12)             113.5547         estimate D2E/DX2                !
 ! A18   A(5,3,12)             123.3844         estimate D2E/DX2                !
 ! A19   A(2,4,6)              123.1357         estimate D2E/DX2                !
 ! A20   A(2,4,7)              116.6749         estimate D2E/DX2                !
 ! A21   A(6,4,7)              120.1892         estimate D2E/DX2                !
 ! A22   A(3,5,8)              118.468          estimate D2E/DX2                !
 ! A23   A(3,5,9)              119.9755         estimate D2E/DX2                !
 ! A24   A(8,5,9)              121.5529         estimate D2E/DX2                !
 ! A25   A(4,6,8)              119.5593         estimate D2E/DX2                !
 ! A26   A(4,6,10)             119.119          estimate D2E/DX2                !
 ! A27   A(8,6,10)             121.3193         estimate D2E/DX2                !
 ! A28   A(5,8,6)              118.4137         estimate D2E/DX2                !
 ! A29   A(5,8,11)             120.4451         estimate D2E/DX2                !
 ! A30   A(6,8,11)             121.1411         estimate D2E/DX2                !
 ! A31   A(3,12,13)            121.1695         estimate D2E/DX2                !
 ! A32   A(3,12,14)            117.1664         estimate D2E/DX2                !
 ! A33   A(13,12,14)           121.6616         estimate D2E/DX2                !
 ! A34   A(1,14,12)            113.7924         estimate D2E/DX2                !
 ! A35   A(1,14,15)            129.5147         estimate D2E/DX2                !
 ! A36   A(12,14,15)           116.6578         estimate D2E/DX2                !
 ! A37   A(14,15,16)           119.8961         estimate D2E/DX2                !
 ! A38   A(14,15,17)           120.6174         estimate D2E/DX2                !
 ! A39   A(16,15,17)           119.4821         estimate D2E/DX2                !
 ! A40   A(15,16,18)           120.7169         estimate D2E/DX2                !
 ! A41   A(15,16,19)           119.052          estimate D2E/DX2                !
 ! A42   A(18,16,19)           120.2276         estimate D2E/DX2                !
 ! A43   A(15,17,20)           118.2552         estimate D2E/DX2                !
 ! A44   A(15,17,21)           122.0523         estimate D2E/DX2                !
 ! A45   A(20,17,21)           119.6455         estimate D2E/DX2                !
 ! A46   A(16,18,22)           120.0324         estimate D2E/DX2                !
 ! A47   A(16,18,23)           119.7366         estimate D2E/DX2                !
 ! A48   A(22,18,23)           120.2304         estimate D2E/DX2                !
 ! A49   A(17,20,22)           123.2583         estimate D2E/DX2                !
 ! A50   A(17,20,74)           117.442          estimate D2E/DX2                !
 ! A51   A(22,20,74)           119.2965         estimate D2E/DX2                !
 ! A52   A(18,22,20)           118.2345         estimate D2E/DX2                !
 ! A53   A(18,22,79)           121.1759         estimate D2E/DX2                !
 ! A54   A(20,22,79)           120.5895         estimate D2E/DX2                !
 ! A55   A(1,24,25)            114.1559         estimate D2E/DX2                !
 ! A56   A(1,24,26)            127.5464         estimate D2E/DX2                !
 ! A57   A(25,24,26)           118.2954         estimate D2E/DX2                !
 ! A58   A(24,25,27)           122.159          estimate D2E/DX2                !
 ! A59   A(24,25,34)           113.4583         estimate D2E/DX2                !
 ! A60   A(27,25,34)           124.2822         estimate D2E/DX2                !
 ! A61   A(24,26,28)           122.4709         estimate D2E/DX2                !
 ! A62   A(24,26,29)           117.2605         estimate D2E/DX2                !
 ! A63   A(28,26,29)           120.2675         estimate D2E/DX2                !
 ! A64   A(25,27,30)           119.2985         estimate D2E/DX2                !
 ! A65   A(25,27,31)           118.9484         estimate D2E/DX2                !
 ! A66   A(30,27,31)           121.7456         estimate D2E/DX2                !
 ! A67   A(26,28,30)           119.3481         estimate D2E/DX2                !
 ! A68   A(26,28,32)           119.0905         estimate D2E/DX2                !
 ! A69   A(30,28,32)           121.5601         estimate D2E/DX2                !
 ! A70   A(27,30,28)           118.4084         estimate D2E/DX2                !
 ! A71   A(27,30,33)           120.7347         estimate D2E/DX2                !
 ! A72   A(28,30,33)           120.8568         estimate D2E/DX2                !
 ! A73   A(25,34,35)           120.9367         estimate D2E/DX2                !
 ! A74   A(25,34,36)           116.5488         estimate D2E/DX2                !
 ! A75   A(35,34,36)           122.4672         estimate D2E/DX2                !
 ! A76   A(1,36,34)            114.0141         estimate D2E/DX2                !
 ! A77   A(1,36,37)            126.8893         estimate D2E/DX2                !
 ! A78   A(34,36,37)           118.2524         estimate D2E/DX2                !
 ! A79   A(36,37,38)           121.1396         estimate D2E/DX2                !
 ! A80   A(36,37,39)           119.2698         estimate D2E/DX2                !
 ! A81   A(38,37,39)           119.5863         estimate D2E/DX2                !
 ! A82   A(37,38,40)           120.8186         estimate D2E/DX2                !
 ! A83   A(37,38,41)           119.3735         estimate D2E/DX2                !
 ! A84   A(40,38,41)           119.8072         estimate D2E/DX2                !
 ! A85   A(37,39,42)           118.3105         estimate D2E/DX2                !
 ! A86   A(37,39,43)           121.5044         estimate D2E/DX2                !
 ! A87   A(42,39,43)           120.1689         estimate D2E/DX2                !
 ! A88   A(38,40,44)           120.4231         estimate D2E/DX2                !
 ! A89   A(38,40,45)           119.7749         estimate D2E/DX2                !
 ! A90   A(44,40,45)           119.8006         estimate D2E/DX2                !
 ! A91   A(39,42,44)           122.9694         estimate D2E/DX2                !
 ! A92   A(39,42,71)           118.043          estimate D2E/DX2                !
 ! A93   A(44,42,71)           118.9868         estimate D2E/DX2                !
 ! A94   A(40,44,42)           117.8905         estimate D2E/DX2                !
 ! A95   A(40,44,78)           122.2878         estimate D2E/DX2                !
 ! A96   A(42,44,78)           119.8209         estimate D2E/DX2                !
 ! A97   A(1,46,47)            113.668          estimate D2E/DX2                !
 ! A98   A(1,46,48)            128.058          estimate D2E/DX2                !
 ! A99   A(47,46,48)           118.2089         estimate D2E/DX2                !
 ! A100  A(46,47,49)           122.5642         estimate D2E/DX2                !
 ! A101  A(46,47,56)           114.0645         estimate D2E/DX2                !
 ! A102  A(49,47,56)           123.3581         estimate D2E/DX2                !
 ! A103  A(46,48,50)           122.2476         estimate D2E/DX2                !
 ! A104  A(46,48,51)           117.602          estimate D2E/DX2                !
 ! A105  A(50,48,51)           120.1392         estimate D2E/DX2                !
 ! A106  A(47,49,52)           118.8936         estimate D2E/DX2                !
 ! A107  A(47,49,53)           119.4119         estimate D2E/DX2                !
 ! A108  A(52,49,53)           121.6928         estimate D2E/DX2                !
 ! A109  A(48,50,52)           119.5817         estimate D2E/DX2                !
 ! A110  A(48,50,54)           118.7018         estimate D2E/DX2                !
 ! A111  A(52,50,54)           121.7165         estimate D2E/DX2                !
 ! A112  A(49,52,50)           118.5005         estimate D2E/DX2                !
 ! A113  A(49,52,55)           120.9192         estimate D2E/DX2                !
 ! A114  A(50,52,55)           120.5803         estimate D2E/DX2                !
 ! A115  A(47,56,57)           121.2354         estimate D2E/DX2                !
 ! A116  A(47,56,58)           116.0455         estimate D2E/DX2                !
 ! A117  A(57,56,58)           122.7191         estimate D2E/DX2                !
 ! A118  A(1,58,56)            114.8873         estimate D2E/DX2                !
 ! A119  A(1,58,59)            127.2093         estimate D2E/DX2                !
 ! A120  A(56,58,59)           117.4056         estimate D2E/DX2                !
 ! A121  A(58,59,60)           119.0697         estimate D2E/DX2                !
 ! A122  A(58,59,61)           120.8047         estimate D2E/DX2                !
 ! A123  A(60,59,61)           120.1229         estimate D2E/DX2                !
 ! A124  A(59,60,62)           118.3261         estimate D2E/DX2                !
 ! A125  A(59,60,63)           121.392          estimate D2E/DX2                !
 ! A126  A(62,60,63)           120.2702         estimate D2E/DX2                !
 ! A127  A(59,61,64)           120.0306         estimate D2E/DX2                !
 ! A128  A(59,61,65)           120.6494         estimate D2E/DX2                !
 ! A129  A(64,61,65)           119.3089         estimate D2E/DX2                !
 ! A130  A(60,62,66)           122.3584         estimate D2E/DX2                !
 ! A131  A(60,62,68)           118.0608         estimate D2E/DX2                !
 ! A132  A(66,62,68)           119.5807         estimate D2E/DX2                !
 ! A133  A(61,64,66)           120.7109         estimate D2E/DX2                !
 ! A134  A(61,64,67)           119.2573         estimate D2E/DX2                !
 ! A135  A(66,64,67)           120.0241         estimate D2E/DX2                !
 ! A136  A(62,66,64)           118.4456         estimate D2E/DX2                !
 ! A137  A(62,66,77)           119.4173         estimate D2E/DX2                !
 ! A138  A(64,66,77)           122.133          estimate D2E/DX2                !
 ! A139  A(62,68,69)           118.0266         estimate D2E/DX2                !
 ! A140  A(62,68,70)           118.1017         estimate D2E/DX2                !
 ! A141  A(69,68,70)           123.8604         estimate D2E/DX2                !
 ! A142  A(42,71,72)           117.5913         estimate D2E/DX2                !
 ! A143  A(42,71,73)           117.8266         estimate D2E/DX2                !
 ! A144  A(72,71,73)           124.5809         estimate D2E/DX2                !
 ! A145  A(20,74,75)           118.1887         estimate D2E/DX2                !
 ! A146  A(20,74,76)           117.2253         estimate D2E/DX2                !
 ! A147  A(75,74,76)           124.5823         estimate D2E/DX2                !
 ! A148  L(2,1,36,14,-1)       180.7891         estimate D2E/DX2                !
 ! A149  L(14,1,58,2,-1)       175.1711         estimate D2E/DX2                !
 ! A150  L(24,1,46,2,-1)       183.9754         estimate D2E/DX2                !
 ! A151  L(2,1,36,14,-2)       176.8782         estimate D2E/DX2                !
 ! A152  L(14,1,58,2,-2)       177.1028         estimate D2E/DX2                !
 ! A153  L(24,1,46,2,-2)       184.7913         estimate D2E/DX2                !
 ! D1    D(14,1,2,3)             0.5472         estimate D2E/DX2                !
 ! D2    D(14,1,2,4)           176.504          estimate D2E/DX2                !
 ! D3    D(24,1,2,3)            89.2858         estimate D2E/DX2                !
 ! D4    D(24,1,2,4)           -94.7574         estimate D2E/DX2                !
 ! D5    D(46,1,2,3)           -95.5054         estimate D2E/DX2                !
 ! D6    D(46,1,2,4)            80.4513         estimate D2E/DX2                !
 ! D7    D(58,1,2,3)          -176.5556         estimate D2E/DX2                !
 ! D8    D(58,1,2,4)            -0.5988         estimate D2E/DX2                !
 ! D9    D(2,1,14,12)            0.6549         estimate D2E/DX2                !
 ! D10   D(2,1,14,15)         -177.0902         estimate D2E/DX2                !
 ! D11   D(24,1,14,12)         -95.4548         estimate D2E/DX2                !
 ! D12   D(24,1,14,15)          86.8001         estimate D2E/DX2                !
 ! D13   D(36,1,14,12)        -176.2234         estimate D2E/DX2                !
 ! D14   D(36,1,14,15)           6.0315         estimate D2E/DX2                !
 ! D15   D(46,1,14,12)          87.7334         estimate D2E/DX2                !
 ! D16   D(46,1,14,15)         -90.0118         estimate D2E/DX2                !
 ! D17   D(2,1,24,25)          172.0923         estimate D2E/DX2                !
 ! D18   D(2,1,24,26)           -8.4779         estimate D2E/DX2                !
 ! D19   D(14,1,24,25)        -106.7316         estimate D2E/DX2                !
 ! D20   D(14,1,24,26)          72.6982         estimate D2E/DX2                !
 ! D21   D(36,1,24,25)          -7.0274         estimate D2E/DX2                !
 ! D22   D(36,1,24,26)         172.4024         estimate D2E/DX2                !
 ! D23   D(58,1,24,25)          77.7597         estimate D2E/DX2                !
 ! D24   D(58,1,24,26)        -102.8105         estimate D2E/DX2                !
 ! D25   D(14,1,36,34)          96.7173         estimate D2E/DX2                !
 ! D26   D(14,1,36,37)         -94.0768         estimate D2E/DX2                !
 ! D27   D(24,1,36,34)           8.5896         estimate D2E/DX2                !
 ! D28   D(24,1,36,37)         177.7956         estimate D2E/DX2                !
 ! D29   D(46,1,36,34)        -166.6656         estimate D2E/DX2                !
 ! D30   D(46,1,36,37)           2.5404         estimate D2E/DX2                !
 ! D31   D(58,1,36,34)         -85.9149         estimate D2E/DX2                !
 ! D32   D(58,1,36,37)          83.2911         estimate D2E/DX2                !
 ! D33   D(2,1,46,47)          -92.3827         estimate D2E/DX2                !
 ! D34   D(2,1,46,48)           84.5993         estimate D2E/DX2                !
 ! D35   D(14,1,46,47)        -173.3913         estimate D2E/DX2                !
 ! D36   D(14,1,46,48)           3.5906         estimate D2E/DX2                !
 ! D37   D(36,1,46,47)          86.4912         estimate D2E/DX2                !
 ! D38   D(36,1,46,48)         -96.5268         estimate D2E/DX2                !
 ! D39   D(58,1,46,47)           1.8895         estimate D2E/DX2                !
 ! D40   D(58,1,46,48)         178.8714         estimate D2E/DX2                !
 ! D41   D(2,1,58,56)           87.5856         estimate D2E/DX2                !
 ! D42   D(2,1,58,59)         -100.784          estimate D2E/DX2                !
 ! D43   D(24,1,58,56)        -176.144          estimate D2E/DX2                !
 ! D44   D(24,1,58,59)          -4.5136         estimate D2E/DX2                !
 ! D45   D(36,1,58,56)         -95.5396         estimate D2E/DX2                !
 ! D46   D(36,1,58,59)          76.0908         estimate D2E/DX2                !
 ! D47   D(46,1,58,56)           0.2324         estimate D2E/DX2                !
 ! D48   D(46,1,58,59)         171.8628         estimate D2E/DX2                !
 ! D49   D(1,2,3,5)            178.3302         estimate D2E/DX2                !
 ! D50   D(1,2,3,12)            -1.5544         estimate D2E/DX2                !
 ! D51   D(4,2,3,5)              1.8987         estimate D2E/DX2                !
 ! D52   D(4,2,3,12)          -177.9858         estimate D2E/DX2                !
 ! D53   D(1,2,4,6)           -177.4889         estimate D2E/DX2                !
 ! D54   D(1,2,4,7)              2.3828         estimate D2E/DX2                !
 ! D55   D(3,2,4,6)             -1.641          estimate D2E/DX2                !
 ! D56   D(3,2,4,7)            178.2307         estimate D2E/DX2                !
 ! D57   D(2,3,5,8)             -1.1197         estimate D2E/DX2                !
 ! D58   D(2,3,5,9)            179.5592         estimate D2E/DX2                !
 ! D59   D(12,3,5,8)           178.7535         estimate D2E/DX2                !
 ! D60   D(12,3,5,9)            -0.5676         estimate D2E/DX2                !
 ! D61   D(2,3,12,13)         -177.2537         estimate D2E/DX2                !
 ! D62   D(2,3,12,14)            2.1863         estimate D2E/DX2                !
 ! D63   D(5,3,12,13)            2.8622         estimate D2E/DX2                !
 ! D64   D(5,3,12,14)         -177.6978         estimate D2E/DX2                !
 ! D65   D(2,4,6,8)              0.6237         estimate D2E/DX2                !
 ! D66   D(2,4,6,10)          -179.924          estimate D2E/DX2                !
 ! D67   D(7,4,6,8)           -179.2437         estimate D2E/DX2                !
 ! D68   D(7,4,6,10)             0.2087         estimate D2E/DX2                !
 ! D69   D(3,5,8,6)              0.027          estimate D2E/DX2                !
 ! D70   D(3,5,8,11)          -179.9571         estimate D2E/DX2                !
 ! D71   D(9,5,8,6)            179.3368         estimate D2E/DX2                !
 ! D72   D(9,5,8,11)            -0.6472         estimate D2E/DX2                !
 ! D73   D(4,6,8,5)              0.2138         estimate D2E/DX2                !
 ! D74   D(4,6,8,11)          -179.8022         estimate D2E/DX2                !
 ! D75   D(10,6,8,5)          -179.2261         estimate D2E/DX2                !
 ! D76   D(10,6,8,11)            0.7579         estimate D2E/DX2                !
 ! D77   D(3,12,14,1)           -1.7181         estimate D2E/DX2                !
 ! D78   D(3,12,14,15)         176.3356         estimate D2E/DX2                !
 ! D79   D(13,12,14,1)         177.719          estimate D2E/DX2                !
 ! D80   D(13,12,14,15)         -4.2273         estimate D2E/DX2                !
 ! D81   D(1,14,15,16)         129.2832         estimate D2E/DX2                !
 ! D82   D(1,14,15,17)         -51.4794         estimate D2E/DX2                !
 ! D83   D(12,14,15,16)        -48.4081         estimate D2E/DX2                !
 ! D84   D(12,14,15,17)        130.8293         estimate D2E/DX2                !
 ! D85   D(14,15,16,18)       -179.2315         estimate D2E/DX2                !
 ! D86   D(14,15,16,19)          0.0963         estimate D2E/DX2                !
 ! D87   D(17,15,16,18)          1.5224         estimate D2E/DX2                !
 ! D88   D(17,15,16,19)       -179.1498         estimate D2E/DX2                !
 ! D89   D(14,15,17,20)       -179.9408         estimate D2E/DX2                !
 ! D90   D(14,15,17,21)         -2.4455         estimate D2E/DX2                !
 ! D91   D(16,15,17,20)         -0.7003         estimate D2E/DX2                !
 ! D92   D(16,15,17,21)        176.795          estimate D2E/DX2                !
 ! D93   D(15,16,18,22)         -1.0196         estimate D2E/DX2                !
 ! D94   D(15,16,18,23)        179.254          estimate D2E/DX2                !
 ! D95   D(19,16,18,22)        179.6605         estimate D2E/DX2                !
 ! D96   D(19,16,18,23)         -0.0659         estimate D2E/DX2                !
 ! D97   D(15,17,20,22)         -0.629          estimate D2E/DX2                !
 ! D98   D(15,17,20,74)        178.7045         estimate D2E/DX2                !
 ! D99   D(21,17,20,22)       -178.1864         estimate D2E/DX2                !
 ! D100  D(21,17,20,74)          1.1471         estimate D2E/DX2                !
 ! D101  D(16,18,22,20)         -0.281          estimate D2E/DX2                !
 ! D102  D(16,18,22,79)        179.8065         estimate D2E/DX2                !
 ! D103  D(23,18,22,20)        179.444          estimate D2E/DX2                !
 ! D104  D(23,18,22,79)         -0.4684         estimate D2E/DX2                !
 ! D105  D(17,20,22,18)          1.13           estimate D2E/DX2                !
 ! D106  D(17,20,22,79)       -178.957          estimate D2E/DX2                !
 ! D107  D(74,20,22,18)       -178.1918         estimate D2E/DX2                !
 ! D108  D(74,20,22,79)          1.7212         estimate D2E/DX2                !
 ! D109  D(17,20,74,75)         -1.9722         estimate D2E/DX2                !
 ! D110  D(17,20,74,76)        177.3686         estimate D2E/DX2                !
 ! D111  D(22,20,74,75)        177.3887         estimate D2E/DX2                !
 ! D112  D(22,20,74,76)         -3.2705         estimate D2E/DX2                !
 ! D113  D(1,24,25,27)        -178.9227         estimate D2E/DX2                !
 ! D114  D(1,24,25,34)           4.5791         estimate D2E/DX2                !
 ! D115  D(26,24,25,27)          1.5908         estimate D2E/DX2                !
 ! D116  D(26,24,25,34)       -174.9074         estimate D2E/DX2                !
 ! D117  D(1,24,26,28)         179.7814         estimate D2E/DX2                !
 ! D118  D(1,24,26,29)           0.1451         estimate D2E/DX2                !
 ! D119  D(25,24,26,28)         -0.8095         estimate D2E/DX2                !
 ! D120  D(25,24,26,29)        179.5542         estimate D2E/DX2                !
 ! D121  D(24,25,27,30)         -1.1051         estimate D2E/DX2                !
 ! D122  D(24,25,27,31)        179.8767         estimate D2E/DX2                !
 ! D123  D(34,25,27,30)        175.0066         estimate D2E/DX2                !
 ! D124  D(34,25,27,31)         -4.0116         estimate D2E/DX2                !
 ! D125  D(24,25,34,35)       -179.7135         estimate D2E/DX2                !
 ! D126  D(24,25,34,36)          2.7305         estimate D2E/DX2                !
 ! D127  D(27,25,34,35)          3.8745         estimate D2E/DX2                !
 ! D128  D(27,25,34,36)       -173.6816         estimate D2E/DX2                !
 ! D129  D(24,26,28,30)         -0.4335         estimate D2E/DX2                !
 ! D130  D(24,26,28,32)        179.9716         estimate D2E/DX2                !
 ! D131  D(29,26,28,30)        179.1922         estimate D2E/DX2                !
 ! D132  D(29,26,28,32)         -0.4027         estimate D2E/DX2                !
 ! D133  D(25,27,30,28)         -0.1748         estimate D2E/DX2                !
 ! D134  D(25,27,30,33)        179.7102         estimate D2E/DX2                !
 ! D135  D(31,27,30,28)        178.815          estimate D2E/DX2                !
 ! D136  D(31,27,30,33)         -1.3001         estimate D2E/DX2                !
 ! D137  D(26,28,30,27)          0.9138         estimate D2E/DX2                !
 ! D138  D(26,28,30,33)       -178.971          estimate D2E/DX2                !
 ! D139  D(32,28,30,27)       -179.5016         estimate D2E/DX2                !
 ! D140  D(32,28,30,33)          0.6136         estimate D2E/DX2                !
 ! D141  D(25,34,36,1)          -8.6003         estimate D2E/DX2                !
 ! D142  D(25,34,36,37)       -178.81           estimate D2E/DX2                !
 ! D143  D(35,34,36,1)         173.8843         estimate D2E/DX2                !
 ! D144  D(35,34,36,37)          3.6746         estimate D2E/DX2                !
 ! D145  D(1,36,37,38)        -122.0173         estimate D2E/DX2                !
 ! D146  D(1,36,37,39)          57.2201         estimate D2E/DX2                !
 ! D147  D(34,36,37,38)         46.7845         estimate D2E/DX2                !
 ! D148  D(34,36,37,39)       -133.9782         estimate D2E/DX2                !
 ! D149  D(36,37,38,40)        179.5248         estimate D2E/DX2                !
 ! D150  D(36,37,38,41)         -0.1592         estimate D2E/DX2                !
 ! D151  D(39,37,38,40)          0.2899         estimate D2E/DX2                !
 ! D152  D(39,37,38,41)       -179.3941         estimate D2E/DX2                !
 ! D153  D(36,37,39,42)       -179.197          estimate D2E/DX2                !
 ! D154  D(36,37,39,43)          2.2674         estimate D2E/DX2                !
 ! D155  D(38,37,39,42)          0.0523         estimate D2E/DX2                !
 ! D156  D(38,37,39,43)       -178.4832         estimate D2E/DX2                !
 ! D157  D(37,38,40,44)         -0.4806         estimate D2E/DX2                !
 ! D158  D(37,38,40,45)        179.944          estimate D2E/DX2                !
 ! D159  D(41,38,40,44)        179.202          estimate D2E/DX2                !
 ! D160  D(41,38,40,45)         -0.3734         estimate D2E/DX2                !
 ! D161  D(37,39,42,44)         -0.2144         estimate D2E/DX2                !
 ! D162  D(37,39,42,71)        179.4642         estimate D2E/DX2                !
 ! D163  D(43,39,42,44)        178.3414         estimate D2E/DX2                !
 ! D164  D(43,39,42,71)         -1.98           estimate D2E/DX2                !
 ! D165  D(38,40,44,42)          0.3161         estimate D2E/DX2                !
 ! D166  D(38,40,44,78)       -179.3671         estimate D2E/DX2                !
 ! D167  D(45,40,44,42)        179.8914         estimate D2E/DX2                !
 ! D168  D(45,40,44,78)          0.2083         estimate D2E/DX2                !
 ! D169  D(39,42,44,40)          0.0313         estimate D2E/DX2                !
 ! D170  D(39,42,44,78)        179.7226         estimate D2E/DX2                !
 ! D171  D(71,42,44,40)       -179.6444         estimate D2E/DX2                !
 ! D172  D(71,42,44,78)          0.0469         estimate D2E/DX2                !
 ! D173  D(39,42,71,72)        176.9852         estimate D2E/DX2                !
 ! D174  D(39,42,71,73)         -3.4052         estimate D2E/DX2                !
 ! D175  D(44,42,71,72)         -3.323          estimate D2E/DX2                !
 ! D176  D(44,42,71,73)        176.2865         estimate D2E/DX2                !
 ! D177  D(1,46,47,49)         177.7408         estimate D2E/DX2                !
 ! D178  D(1,46,47,56)          -3.5393         estimate D2E/DX2                !
 ! D179  D(48,46,47,49)          0.4372         estimate D2E/DX2                !
 ! D180  D(48,46,47,56)        179.1571         estimate D2E/DX2                !
 ! D181  D(1,46,48,50)        -176.9397         estimate D2E/DX2                !
 ! D182  D(1,46,48,51)           4.2761         estimate D2E/DX2                !
 ! D183  D(47,46,48,50)         -0.0765         estimate D2E/DX2                !
 ! D184  D(47,46,48,51)       -178.8607         estimate D2E/DX2                !
 ! D185  D(46,47,49,52)         -0.7181         estimate D2E/DX2                !
 ! D186  D(46,47,49,53)        179.748          estimate D2E/DX2                !
 ! D187  D(56,47,49,52)       -179.3187         estimate D2E/DX2                !
 ! D188  D(56,47,49,53)          1.1474         estimate D2E/DX2                !
 ! D189  D(46,47,56,57)       -176.2058         estimate D2E/DX2                !
 ! D190  D(46,47,56,58)          3.8453         estimate D2E/DX2                !
 ! D191  D(49,47,56,57)          2.5026         estimate D2E/DX2                !
 ! D192  D(49,47,56,58)       -177.4464         estimate D2E/DX2                !
 ! D193  D(46,48,50,52)          0.0081         estimate D2E/DX2                !
 ! D194  D(46,48,50,54)       -179.9142         estimate D2E/DX2                !
 ! D195  D(51,48,50,52)        178.7622         estimate D2E/DX2                !
 ! D196  D(51,48,50,54)         -1.1601         estimate D2E/DX2                !
 ! D197  D(47,49,52,50)          0.62           estimate D2E/DX2                !
 ! D198  D(47,49,52,55)       -179.4401         estimate D2E/DX2                !
 ! D199  D(53,49,52,50)       -179.8572         estimate D2E/DX2                !
 ! D200  D(53,49,52,55)          0.0827         estimate D2E/DX2                !
 ! D201  D(48,50,52,49)         -0.2857         estimate D2E/DX2                !
 ! D202  D(48,50,52,55)        179.7741         estimate D2E/DX2                !
 ! D203  D(54,50,52,49)        179.6342         estimate D2E/DX2                !
 ! D204  D(54,50,52,55)         -0.306          estimate D2E/DX2                !
 ! D205  D(47,56,58,1)          -2.2395         estimate D2E/DX2                !
 ! D206  D(47,56,58,59)       -174.7363         estimate D2E/DX2                !
 ! D207  D(57,56,58,1)         177.8124         estimate D2E/DX2                !
 ! D208  D(57,56,58,59)          5.3156         estimate D2E/DX2                !
 ! D209  D(1,58,59,60)        -116.7708         estimate D2E/DX2                !
 ! D210  D(1,58,59,61)          62.6338         estimate D2E/DX2                !
 ! D211  D(56,58,59,60)         54.6757         estimate D2E/DX2                !
 ! D212  D(56,58,59,61)       -125.9197         estimate D2E/DX2                !
 ! D213  D(58,59,60,62)        179.0178         estimate D2E/DX2                !
 ! D214  D(58,59,60,63)          0.2611         estimate D2E/DX2                !
 ! D215  D(61,59,60,62)         -0.3909         estimate D2E/DX2                !
 ! D216  D(61,59,60,63)       -179.1476         estimate D2E/DX2                !
 ! D217  D(58,59,61,64)       -179.6415         estimate D2E/DX2                !
 ! D218  D(58,59,61,65)          1.5799         estimate D2E/DX2                !
 ! D219  D(60,59,61,64)         -0.2432         estimate D2E/DX2                !
 ! D220  D(60,59,61,65)       -179.0217         estimate D2E/DX2                !
 ! D221  D(59,60,62,66)          0.8294         estimate D2E/DX2                !
 ! D222  D(59,60,62,68)       -179.0643         estimate D2E/DX2                !
 ! D223  D(63,60,62,66)        179.6005         estimate D2E/DX2                !
 ! D224  D(63,60,62,68)         -0.2932         estimate D2E/DX2                !
 ! D225  D(59,61,64,66)          0.477          estimate D2E/DX2                !
 ! D226  D(59,61,64,67)       -178.5148         estimate D2E/DX2                !
 ! D227  D(65,61,64,66)        179.2719         estimate D2E/DX2                !
 ! D228  D(65,61,64,67)          0.2802         estimate D2E/DX2                !
 ! D229  D(60,62,66,64)         -0.6051         estimate D2E/DX2                !
 ! D230  D(60,62,66,77)       -179.89           estimate D2E/DX2                !
 ! D231  D(68,62,66,64)        179.2871         estimate D2E/DX2                !
 ! D232  D(68,62,66,77)          0.0021         estimate D2E/DX2                !
 ! D233  D(60,62,68,69)          4.0093         estimate D2E/DX2                !
 ! D234  D(60,62,68,70)       -177.1637         estimate D2E/DX2                !
 ! D235  D(66,62,68,69)       -175.8875         estimate D2E/DX2                !
 ! D236  D(66,62,68,70)          2.9395         estimate D2E/DX2                !
 ! D237  D(61,64,66,62)         -0.0606         estimate D2E/DX2                !
 ! D238  D(61,64,66,77)        179.2039         estimate D2E/DX2                !
 ! D239  D(67,64,66,62)        178.9234         estimate D2E/DX2                !
 ! D240  D(67,64,66,77)         -1.8121         estimate D2E/DX2                !
 --------------------------------------------------------------------------------
 Trust Radius=1.50D-01 FncErr=5.00D-06 GrdErr=5.00D-06 EigMax=2.50D+02 EigMin=1.00D-04
 Number of steps in this run=    474 maximum allowed number of steps=    474.
 GradGradGradGradGradGradGradGradGradGradGradGradGradGradGradGradGradGrad

 Leave Link  103 at Mon Oct 30 10:32:21 2023, MaxMem=  4294967296 cpu:               0.0 elap:               0.0
 (Enter /opt/software/packages/g16/l202.exe)
 Symmetry turned off by external request.
 Stoichiometry    C36H27FeN9O6
                          Input orientation:                          
 ---------------------------------------------------------------------
 Center     Atomic      Atomic             Coordinates (Angstroms)
 Number     Number       Type             X           Y           Z
 ---------------------------------------------------------------------
      1         26           0       -0.194877    0.991377   -0.158810
      2          7           0       -0.491042    2.907335   -0.523724
      3          6           0        0.416000    3.741116    0.079174
      4          6           0       -1.409579    3.473452   -1.335429
      5          6           0        0.399767    5.136294   -0.082574
      6          6           0       -1.490487    4.849539   -1.553045
      7          1           0       -2.113908    2.790600   -1.837635
      8          6           0       -0.579122    5.703418   -0.920808
      9          1           0        1.141783    5.752721    0.426841
     10          1           0       -2.260556    5.237010   -2.222310
     11          1           0       -0.620995    6.787915   -1.070687
     12          6           0        1.384582    3.048519    0.889080
     13          1           0        2.141413    3.597959    1.464248
     14          7           0        1.315154    1.742770    0.917270
     15          6           0        2.329754    1.062732    1.658595
     16          6           0        3.700315    1.400590    1.461867
     17          6           0        1.987760    0.067223    2.598968
     18          6           0        4.708502    0.734890    2.166600
     19          1           0        3.958717    2.189887    0.735115
     20          6           0        3.018515   -0.564794    3.296680
     21          1           0        0.946404   -0.189342    2.821081
     22          6           0        4.373020   -0.268812    3.100229
     23          1           0        5.765856    1.001198    1.992499
     24          7           0       -1.305457    0.918240    1.471951
     25          6           0       -1.498935   -0.349807    1.963986
     26          6           0       -1.862082    1.949558    2.131224
     27          6           0       -2.275608   -0.596539    3.097394
     28          6           0       -2.640670    1.773833    3.284900
     29          1           0       -1.691288    2.950813    1.729539
     30          6           0       -2.861443    0.479584    3.773731
     31          1           0       -2.396205   -1.627187    3.442272
     32          1           0       -3.065220    2.649048    3.775899
     33          1           0       -3.478372    0.312805    4.661625
     34          6           0       -0.762032   -1.364054    1.245821
     35          1           0       -0.830584   -2.418229    1.532235
     36          7           0        0.018472   -0.947139    0.280117
     37          6           0        0.744530   -1.921754   -0.471143
     38          6           0        0.112943   -3.080952   -0.963305
     39          6           0        2.114926   -1.708357   -0.736602
     40          6           0        0.829639   -4.028184   -1.708228
     41          1           0       -0.953739   -3.238257   -0.763607
     42          6           0        2.800574   -2.664886   -1.486679
     43          1           0        2.640915   -0.834458   -0.350431
     44          6           0        2.188014   -3.832157   -1.984998
     45          1           0        0.323182   -4.921192   -2.080739
     46          7           0        0.809508    0.893512   -1.863924
     47          6           0        0.037674    0.536118   -2.936669
     48          6           0        2.111488    1.186403   -2.082508
     49          6           0        0.549758    0.455139   -4.244490
     50          6           0        2.687363    1.133260   -3.363669
     51          1           0        2.724323    1.452504   -1.214781
     52          6           0        1.897179    0.765540   -4.463789
     53          1           0       -0.116222    0.158479   -5.067850
     54          1           0        3.748528    1.380930   -3.474062
     55          1           0        2.328970    0.722278   -5.471736
     56          6           0       -1.331635    0.224305   -2.599193
     57          1           0       -2.034793   -0.134223   -3.356274
     58          7           0       -1.669053    0.398309   -1.345011
     59          6           0       -2.988050   -0.011607   -0.952438
     60          6           0       -3.398395   -1.331850   -1.210295
     61          6           0       -3.859163    0.885308   -0.307080
     62          6           0       -4.684416   -1.722261   -0.800802
     63          1           0       -2.735784   -2.047527   -1.696365
     64          6           0       -5.145618    0.464071    0.077309
     65          1           0       -3.555842    1.915135   -0.117146
     66          6           0       -5.568903   -0.840794   -0.164874
     67          1           0       -5.824305    1.181857    0.558293
     68          7           0       -5.100093   -3.111320   -1.054802
     69          8           0       -4.266843   -3.888852   -1.549231
     70          8           0       -6.249680   -3.441103   -0.743491
     71          7           0        4.234945   -2.429149   -1.771902
     72          8           0        4.846826   -3.306156   -2.386312
     73          8           0        4.730927   -1.370649   -1.386649
     74          7           0        2.635328   -1.592329    4.306663
     75          8           0        1.436650   -1.801680    4.497786
     76          8           0        3.551984   -2.184859    4.886174
     77          1           0       -6.565347   -1.198891    0.137355
     78          1           0        2.772120   -4.543908   -2.569852
     79          1           0        5.145511   -0.802823    3.658666
 ---------------------------------------------------------------------
 Rotational constants (GHZ):           0.0688587           0.0527615           0.0505995
 Leave Link  202 at Mon Oct 30 10:32:21 2023, MaxMem=  4294967296 cpu:               0.0 elap:               0.0
 (Enter /opt/software/packages/g16/l301.exe)
 Standard basis: def2SVP (5D, 7F)
 Ernie: Thresh=  0.10000D-02 Tol=  0.10000D-05 Strict=F.
   880 basis functions,  1545 primitive gaussians,   936 cartesian basis functions
   189 alpha electrons      189 beta electrons
       nuclear repulsion energy      8167.5153535621 Hartrees.
 IExCor= 2523 DFT=T Ex=TPSS Corr=TPSS ExCW=0 ScaHFX=  0.000000
 ScaDFX=  1.000000  1.000000  1.000000  1.000000 ScalE2=  1.000000  1.000000
 IRadAn=      5 IRanWt=     -1 IRanGd=            0 ICorTp=0 IEmpDi=  4
 NAtoms=   79 NActive=   79 NUniq=   79 SFac= 1.00D+00 NAtFMM=   60 NAOKFM=T Big=T
 Integral buffers will be    131072 words long.
 Raffenetti 2 integral format.
 Two-electron integral symmetry is turned off.
 ------------------------------------------------------------------------------
 Polarizable Continuum Model (PCM)
 =================================
 Model                : PCM.
 Atomic radii         : SMD-Coulomb.
 Polarization charges : Total charges.
 Charge compensation  : None.
 Solution method      : On-the-fly selection.
 Cavity type          : VdW (van der Waals Surface) (Alpha=1.000).
 Cavity algorithm     : GePol (No added spheres)
                        Default sphere list used, NSphG=   79.
                        Lebedev-Laikov grids with approx.  5.0 points / Ang**2.
                        Smoothing algorithm: York/Karplus (Gamma=1.0000).
                        Polarization charges: spherical gaussians, with
                                              point-specific exponents (IZeta= 3).
                        Self-potential: point-specific (ISelfS= 7).
                        Self-field    : sphere-specific E.n sum rule (ISelfD= 2).
 1st derivatives      : Analytical E(r).r(x)/FMM algorithm (CHGder, D1EAlg=3).
                        Cavity 1st derivative terms included.
 Solvent              : Acetonitrile, Eps=  35.688000 Eps(inf)=   1.806874
 ------------------------------------------------------------------------------
 GePol: Number of generator spheres                  =      79
 GePol: Total number of spheres                      =      79
 GePol: Number of exposed spheres                    =      78 ( 98.73%)
 GePol: Number of points                             =    5915
 GePol: Average weight of points                     =       0.12
 GePol: Minimum weight of points                     =   0.69D-10
 GePol: Maximum weight of points                     =    0.21559
 GePol: Number of points with low weight             =     391
 GePol: Fraction of low-weight points (<1% of avg)   =       6.61%
 GePol: Cavity surface area                          =    694.853 Ang**2
 GePol: Cavity volume                                =    749.522 Ang**3
 ------------------------------------------------------------------------------
 Atomic radii for non-electrostatic terms: SMD-CDS.
 ------------------------------------------------------------------------------
 PCM non-electrostatic energy =        -0.0101852706 Hartrees.
 Nuclear repulsion after PCM non-electrostatic terms =     8167.5051682915 Hartrees.
 Leave Link  301 at Mon Oct 30 10:32:21 2023, MaxMem=  4294967296 cpu:               0.1 elap:               0.1
 (Enter /opt/software/packages/g16/l302.exe)
 NPDir=0 NMtPBC=     1 NCelOv=     1 NCel=       1 NClECP=     1 NCelD=      1
         NCelK=      1 NCelE2=     1 NClLst=     1 CellRange=     0.0.
 One-electron integrals computed using PRISM.
   1 Symmetry operations used in ECPInt.
 ECPInt:  NShTT=   79401 NPrTT=  302260 LenC2=   65414 LenP2D=  155392.
 LDataN:  DoStor=T MaxTD1= 6 Len=  172
 NBasis=   880 RedAO= T EigKep=  2.40D-04  NBF=   880
 NBsUse=   880 1.00D-06 EigRej= -1.00D+00 NBFU=   880
 Precomputing XC quadrature grid using
 IXCGrd= 4 IRadAn=           5 IRanWt=          -1 IRanGd=           0 AccXCQ= 0.00D+00.
 Generated NRdTot=       0 NPtTot=           0 NUsed=           0 NTot=          32
 NSgBfM=   895   884   890   895   895 MxSgAt=    79 MxSgA2=    79.
 Leave Link  302 at Mon Oct 30 10:32:23 2023, MaxMem=  4294967296 cpu:              13.4 elap:               1.7
 (Enter /opt/software/packages/g16/l303.exe)
 DipDrv:  MaxL=1.
 Leave Link  303 at Mon Oct 30 10:32:23 2023, MaxMem=  4294967296 cpu:               0.3 elap:               0.1
 (Enter /opt/software/packages/g16/l401.exe)
 ExpMin= 3.37D-02 ExpMax= 6.09D+04 ExpMxC= 9.15D+03 IAcc=3 IRadAn=         5 AccDes= 0.00D+00
 Harris functional with IExCor= 1009 and IRadAn=       5 diagonalized for initial guess.
 HarFok:  IExCor= 1009 AccDes= 0.00D+00 IRadAn=         5 IDoV= 1 UseB2=F ITyADJ=14
 ICtDFT=  3500011 ScaDFX=  1.000000  1.000000  1.000000  1.000000
 FoFCou: FMM=F IPFlag=           0 FMFlag=      100000 FMFlg1=        2001
         NFxFlg=           0 DoJE=T BraDBF=F KetDBF=T FulRan=T
         wScrn=  0.000000 ICntrl=       500 IOpCl=  0 I1Cent=   200000004 NGrid=           0
         NMat0=    1 NMatS0=      1 NMatT0=    0 NMatD0=    1 NMtDS0=    0 NMtDT0=    0
 Symmetry not used in FoFCou.
 Harris En= -3591.02961883729    
 JPrj=0 DoOrth=F DoCkMO=F.
 Leave Link  401 at Mon Oct 30 10:32:29 2023, MaxMem=  4294967296 cpu:              90.5 elap:               6.4
 (Enter /opt/software/packages/g16/l502.exe)
 Two-electron integral symmetry not used.
 Closed shell SCF:
 Using DIIS extrapolation, IDIIS=  1040.
 NGot=  4294967296 LenX=  4293190700 LenY=  4292313668
 Requested convergence on RMS density matrix=1.00D-08 within 128 cycles.
 Requested convergence on MAX density matrix=1.00D-06.
 Requested convergence on             energy=1.00D-06.
 No special actions if energy rises.
 Fock matrices will be formed incrementally for  20 cycles.

 Cycle   1  Pass 1  IDiag  1:
 FoFJK:  IHMeth= 1 ICntrl=     500 DoSepK=F KAlg= 0 I1Cent=           0 FoldK=F
 IRaf= 960000000 NMat=       1 IRICut=       1 DoRegI=T DoRafI=F ISym2E= 0 IDoP0=0 IntGTp=1.
 FoFCou: FMM=T IPFlag=           0 FMFlag=      100000 FMFlg1=        2001
         NFxFlg=           0 DoJE=T BraDBF=F KetDBF=F FulRan=T
         wScrn=  0.000000 ICntrl=       500 IOpCl=  0 I1Cent=           0 NGrid=           0
         NMat0=    1 NMatS0=      1 NMatT0=    0 NMatD0=    1 NMtDS0=    0 NMtDT0=    0
 Symmetry not used in FoFCou.
 FMM levels:  10  Number of levels for PrismC:   9
 Inv3:  Mode=1 IEnd=   104961675.
 Iteration    1 A*A^-1 deviation from unit magnitude is 7.33D-15 for   5904.
 Iteration    1 A*A^-1 deviation from orthogonality  is 6.38D-15 for   4766    597.
 Iteration    1 A^-1*A deviation from unit magnitude is 7.22D-15 for   5904.
 Iteration    1 A^-1*A deviation from orthogonality  is 4.65D-15 for   5882   4734.
 E= -3593.13908217268    
 DIIS: error= 3.70D-02 at cycle   1 NSaved=   1.
 NSaved= 1 IEnMin= 1 EnMin= -3593.13908217268     IErMin= 1 ErrMin= 3.70D-02
 ErrMax= 3.70D-02  0.00D+00 EMaxC= 1.00D-01 BMatC= 1.33D+00 BMatP= 1.33D+00
 IDIUse=3 WtCom= 6.30D-01 WtEn= 3.70D-01
 Coeff-Com:  0.100D+01
 Coeff-En:   0.100D+01
 Coeff:      0.100D+01
 Gap=     0.433 Goal=   None    Shift=    0.000
 GapD=    0.433 DampG=2.000 DampE=0.250 DampFc=0.5000 IDamp=-1.
 Damping current iteration by 5.00D-01
 RMSDP=4.19D-03 MaxDP=6.53D-01              OVMax= 4.82D-01

 Cycle   2  Pass 1  IDiag  1:
 RMSU=  2.08D-03    CP:  9.82D-01
 E= -3590.82526675988     Delta-E=        2.313815412804 Rises=F Damp=T
 DIIS: error= 4.62D-02 at cycle   2 NSaved=   2.
 NSaved= 2 IEnMin= 1 EnMin= -3593.13908217268     IErMin= 1 ErrMin= 3.70D-02
 ErrMax= 4.62D-02  0.00D+00 EMaxC= 1.00D-01 BMatC= 2.40D+00 BMatP= 1.33D+00
 IDIUse=2 WtCom= 0.00D+00 WtEn= 1.00D+00
 Coeff-En:   0.751D+00 0.249D+00
 Coeff:      0.751D+00 0.249D+00
 Gap=    -0.008 Goal=   None    Shift=    0.000
 RMSDP=1.70D-03 MaxDP=3.14D-01 DE= 2.31D+00 OVMax= 6.93D-01

 Cycle   3  Pass 1  IDiag  1:
 RMSU=  1.60D-03    CP:  9.74D-01  7.27D-01
 E= -3593.14422536782     Delta-E=       -2.318958607944 Rises=F Damp=F
 DIIS: error= 4.66D-02 at cycle   3 NSaved=   3.
 NSaved= 3 IEnMin= 3 EnMin= -3593.14422536782     IErMin= 1 ErrMin= 3.70D-02
 ErrMax= 4.66D-02  0.00D+00 EMaxC= 1.00D-01 BMatC= 1.33D+00 BMatP= 1.33D+00
 IDIUse=3 WtCom= 5.34D-01 WtEn= 4.66D-01
 Coeff-Com:  0.479D+00 0.176D+00 0.345D+00
 Coeff-En:   0.499D+00 0.000D+00 0.501D+00
 Coeff:      0.488D+00 0.941D-01 0.418D+00
 Gap=     0.130 Goal=   None    Shift=    0.000
 RMSDP=1.40D-03 MaxDP=1.62D-01 DE=-2.32D+00 OVMax= 2.30D-01

 Cycle   4  Pass 1  IDiag  1:
 RMSU=  1.00D-03    CP:  9.74D-01  5.51D-01  4.30D-01
 E= -3593.57242640771     Delta-E=       -0.428201039884 Rises=F Damp=F
 DIIS: error= 3.43D-02 at cycle   4 NSaved=   4.
 NSaved= 4 IEnMin= 4 EnMin= -3593.57242640771     IErMin= 4 ErrMin= 3.43D-02
 ErrMax= 3.43D-02  0.00D+00 EMaxC= 1.00D-01 BMatC= 9.66D-01 BMatP= 1.33D+00
 IDIUse=3 WtCom= 6.57D-01 WtEn= 3.43D-01
 EnCoef did     3 forward-backward iterations
 Coeff-Com:  0.365D+00-0.268D-01 0.373D+00 0.289D+00
 Coeff-En:   0.319D+00 0.000D+00 0.294D+00 0.387D+00
 Coeff:      0.349D+00-0.176D-01 0.346D+00 0.322D+00
 Gap=     0.174 Goal=   None    Shift=    0.000
 RMSDP=2.18D-03 MaxDP=4.84D-01 DE=-4.28D-01 OVMax= 9.82D-01

 Cycle   5  Pass 1  IDiag  1:
 RMSU=  1.87D-03    CP:  9.71D-01  4.04D-01  5.03D-01 -7.33D-02
 E= -3589.23451162670     Delta-E=        4.337914781003 Rises=F Damp=F
 DIIS: error= 1.23D-01 at cycle   5 NSaved=   5.
 NSaved= 5 IEnMin= 4 EnMin= -3593.57242640771     IErMin= 4 ErrMin= 3.43D-02
 ErrMax= 1.23D-01  0.00D+00 EMaxC= 1.00D-01 BMatC= 6.08D+00 BMatP= 9.66D-01
 IDIUse=2 WtCom= 0.00D+00 WtEn= 1.00D+00
 EnCoef did     1 forward-backward iterations
 Coeff-En:   0.000D+00 0.000D+00 0.152D-01 0.747D+00 0.238D+00
 Coeff:      0.000D+00 0.000D+00 0.152D-01 0.747D+00 0.238D+00
 Gap=    -0.039 Goal=   None    Shift=    0.000
 RMSDP=1.84D-03 MaxDP=3.67D-01 DE= 4.34D+00 OVMax= 9.70D-01

 Cycle   6  Pass 1  IDiag  1:
 RMSU=  4.62D-04    CP:  9.83D-01  4.44D-01  6.55D-01  3.35D-02  6.17D-02
 E= -3593.92968002755     Delta-E=       -4.695168400843 Rises=F Damp=F
 DIIS: error= 1.96D-02 at cycle   6 NSaved=   6.
 NSaved= 6 IEnMin= 6 EnMin= -3593.92968002755     IErMin= 6 ErrMin= 1.96D-02
 ErrMax= 1.96D-02  0.00D+00 EMaxC= 1.00D-01 BMatC= 3.75D-01 BMatP= 9.66D-01
 IDIUse=3 WtCom= 8.04D-01 WtEn= 1.96D-01
 EnCoef did     9 forward-backward iterations
 Coeff-Com:  0.260D+00-0.112D-01 0.213D+00 0.311D+00 0.123D-01 0.215D+00
 Coeff-En:   0.000D+00 0.000D+00 0.000D+00 0.480D+00 0.942D-01 0.425D+00
 Coeff:      0.209D+00-0.902D-02 0.171D+00 0.344D+00 0.283D-01 0.256D+00
 Gap=     0.040 Goal=   None    Shift=    0.000
 RMSDP=6.36D-04 MaxDP=6.71D-02 DE=-4.70D+00 OVMax= 1.03D-01

 Cycle   7  Pass 1  IDiag  1:
 RMSU=  4.52D-04    CP:  9.78D-01  4.12D-01  5.81D-01  2.94D-01  1.08D-01
                    CP:  3.07D-01
 E= -3594.08617687352     Delta-E=       -0.156496845978 Rises=F Damp=F
 DIIS: error= 1.87D-02 at cycle   7 NSaved=   7.
 NSaved= 7 IEnMin= 7 EnMin= -3594.08617687352     IErMin= 7 ErrMin= 1.87D-02
 ErrMax= 1.87D-02  0.00D+00 EMaxC= 1.00D-01 BMatC= 1.74D-01 BMatP= 3.75D-01
 IDIUse=3 WtCom= 8.13D-01 WtEn= 1.87D-01
 EnCoef did     2 forward-backward iterations
 Coeff-Com:  0.367D-01-0.662D-03-0.340D-02 0.238D+00-0.351D-01 0.321D+00
 Coeff-Com:  0.444D+00
 Coeff-En:   0.000D+00 0.000D+00 0.000D+00 0.248D+00 0.000D+00 0.217D+00
 Coeff-En:   0.535D+00
 Coeff:      0.299D-01-0.538D-03-0.277D-02 0.240D+00-0.286D-01 0.301D+00
 Coeff:      0.461D+00
 Gap=     0.036 Goal=   None    Shift=    0.000
 RMSDP=3.25D-04 MaxDP=3.12D-02 DE=-1.56D-01 OVMax= 4.49D-02

 Cycle   8  Pass 1  IDiag  1:
 RMSU=  1.95D-04    CP:  9.79D-01  3.79D-01  6.08D-01  2.76D-01  7.93D-02
                    CP:  4.83D-01  5.01D-01
 E= -3594.14567315496     Delta-E=       -0.059496281440 Rises=F Damp=F
 DIIS: error= 1.28D-02 at cycle   8 NSaved=   8.
 NSaved= 8 IEnMin= 8 EnMin= -3594.14567315496     IErMin= 8 ErrMin= 1.28D-02
 ErrMax= 1.28D-02  0.00D+00 EMaxC= 1.00D-01 BMatC= 8.12D-02 BMatP= 1.74D-01
 IDIUse=3 WtCom= 8.72D-01 WtEn= 1.28D-01
 EnCoef did     5 forward-backward iterations
 Coeff-Com: -0.448D-02 0.415D-01-0.135D-01 0.142D+00-0.352D-01 0.116D+00
 Coeff-Com:  0.229D+00 0.524D+00
 Coeff-En:   0.000D+00 0.000D+00 0.000D+00 0.189D+00 0.000D+00 0.000D+00
 Coeff-En:   0.538D-01 0.758D+00
 Coeff:     -0.391D-02 0.362D-01-0.118D-01 0.148D+00-0.307D-01 0.101D+00
 Coeff:      0.207D+00 0.554D+00
 Gap=     0.036 Goal=   None    Shift=    0.000
 RMSDP=1.73D-04 MaxDP=1.79D-02 DE=-5.95D-02 OVMax= 3.15D-02

 Cycle   9  Pass 1  IDiag  1:
 RMSU=  7.88D-05    CP:  9.80D-01  3.94D-01  5.99D-01  2.30D-01  9.18D-02
                    CP:  5.18D-01  6.44D-01  3.69D-01
 E= -3594.12072916578     Delta-E=        0.024943989188 Rises=F Damp=F
 DIIS: error= 1.75D-02 at cycle   9 NSaved=   9.
 NSaved= 9 IEnMin= 8 EnMin= -3594.14567315496     IErMin= 8 ErrMin= 1.28D-02
 ErrMax= 1.75D-02  0.00D+00 EMaxC= 1.00D-01 BMatC= 1.33D-01 BMatP= 8.12D-02
 IDIUse=2 WtCom= 0.00D+00 WtEn= 1.00D+00
 EnCoef did   100 forward-backward iterations
 Coeff-En:   0.000D+00 0.000D+00 0.000D+00 0.205D+00 0.000D+00 0.000D+00
 Coeff-En:   0.511D-02 0.455D+00 0.335D+00
 Coeff:      0.000D+00 0.000D+00 0.000D+00 0.205D+00 0.000D+00 0.000D+00
 Coeff:      0.511D-02 0.455D+00 0.335D+00
 Gap=     0.096 Goal=   None    Shift=    0.000
 RMSDP=7.15D-04 MaxDP=1.25D-01 DE= 2.49D-02 OVMax= 2.29D-01

 Cycle  10  Pass 1  IDiag  1:
 RMSU=  1.71D-04    CP:  9.78D-01  5.58D-01  5.19D-01  6.54D-01 -6.80D-03
                    CP:  3.32D-01 -2.04D-02 -5.46D-01  9.20D-02
 E= -3593.99726878626     Delta-E=        0.123460379521 Rises=F Damp=F
 DIIS: error= 1.86D-02 at cycle  10 NSaved=  10.
 NSaved=10 IEnMin= 8 EnMin= -3594.14567315496     IErMin= 8 ErrMin= 1.28D-02
 ErrMax= 1.86D-02  0.00D+00 EMaxC= 1.00D-01 BMatC= 2.94D-01 BMatP= 8.12D-02
 IDIUse=2 WtCom= 0.00D+00 WtEn= 1.00D+00
 EnCoef did   100 forward-backward iterations
 Coeff-En:   0.000D+00 0.000D+00 0.000D+00 0.500D-02 0.000D+00 0.000D+00
 Coeff-En:   0.000D+00 0.501D+00 0.168D+00 0.326D+00
 Coeff:      0.000D+00 0.000D+00 0.000D+00 0.500D-02 0.000D+00 0.000D+00
 Coeff:      0.000D+00 0.501D+00 0.168D+00 0.326D+00
 Gap=     0.073 Goal=   None    Shift=    0.000
 RMSDP=3.44D-04 MaxDP=4.16D-02 DE= 1.23D-01 OVMax= 9.09D-02

 Cycle  11  Pass 1  IDiag  1:
 RMSU=  8.80D-05    CP:  9.78D-01  4.55D-01  5.30D-01  5.72D-01  2.65D-02
                    CP:  2.90D-01  3.93D-01  3.38D-03  2.87D-01  5.38D-01
 E= -3594.16479896173     Delta-E=       -0.167530175475 Rises=F Damp=F
 DIIS: error= 8.35D-03 at cycle  11 NSaved=  11.
 NSaved=11 IEnMin=11 EnMin= -3594.16479896173     IErMin=11 ErrMin= 8.35D-03
 ErrMax= 8.35D-03  0.00D+00 EMaxC= 1.00D-01 BMatC= 5.40D-02 BMatP= 8.12D-02
 IDIUse=3 WtCom= 9.17D-01 WtEn= 8.35D-02
 EnCoef did    20 forward-backward iterations
 Coeff-Com: -0.104D-01-0.116D-02-0.744D-02-0.107D+00-0.303D-02 0.199D-01
 Coeff-Com:  0.333D-01 0.424D+00-0.581D-01 0.177D+00 0.532D+00
 Coeff-En:   0.000D+00 0.000D+00 0.000D+00 0.000D+00 0.000D+00 0.000D+00
 Coeff-En:   0.000D+00 0.384D+00 0.686D-01 0.282D-01 0.519D+00
[...]
      6   0.658005D-02  0.235297D-02 -0.616791D-02  0.129000D-02  0.274093D-02
      7   0.226243D-02  0.439099D-03  0.409337D-03 -0.406982D-02  0.128360D-04
      8  -0.381608D+00  0.224810D+00  0.757769D-01  0.381063D-01 -0.196439D+00
      9   0.260947D+00 -0.688395D-01 -0.123918D+00 -0.360216D-01  0.684170D-01
     10  -0.120581D+00  0.479581D-01  0.950248D-01  0.365486D-01  0.374975D-01
     11   0.340265D-01  0.961071D-02  0.363934D-01  0.667034D-02 -0.323254D-01
     12  -0.365748D-02 -0.167588D-01 -0.282650D-02  0.118248D-02  0.357449D-02
     13   0.206762D-02  0.944880D-02  0.292362D-02 -0.111621D-01  0.122345D-01
     14   0.113004D-01  0.226888D-01  0.408878D-02  0.310473D-02  0.666967D-02
     15   0.197462D-01 -0.140005D-01  0.286443D-02 -0.264713D-01  0.538928D-03
     16  -0.729205D-02 -0.519543D-02  0.940605D-02  0.787331D-02 -0.437775D-02
                 6             7             8             9            10 
      1  -0.359414D+04 -0.359414D+04 -0.359414D+04 -0.359414D+04 -0.359413D+04
      2   0.346185D-01 -0.504381D-01 -0.160728D+00 -0.529756D-02 -0.110796D+00
      3  -0.130817D-01 -0.225185D+00 -0.228019D+00 -0.484239D-01 -0.103521D+00
      4   0.554640D-01 -0.128988D+00  0.534723D+00  0.505172D+00  0.291372D+00
      5  -0.128647D-02  0.534032D-02  0.114607D-01 -0.854698D-03  0.829463D-02
      6   0.329404D-02  0.183830D-01  0.154257D-01  0.274084D-02  0.832641D-02
      7  -0.121001D-02  0.905380D-02 -0.365162D-01 -0.377959D-01 -0.201435D-01
      8   0.523955D-01 -0.680506D-01 -0.228421D+00 -0.295651D-01  0.882464D-02
      9   0.778145D-01 -0.249604D+00 -0.927511D-01 -0.292213D-03  0.534871D-01
     10  -0.559431D-03 -0.174039D+00  0.114195D+00  0.279261D+00 -0.268112D+00
     11  -0.311397D-01 -0.113349D-01 -0.221873D-01 -0.245768D-01  0.127719D-01
     12   0.220769D-01  0.130927D+00  0.386765D-01 -0.532044D-01 -0.202357D-01
     13  -0.222202D-01 -0.880010D-01  0.347986D-01  0.587928D-01  0.429532D-01
     14   0.155200D-01 -0.463203D-02  0.272977D-01  0.117071D-01  0.269025D-01
     15  -0.615179D-02  0.378573D-01  0.571410D-01 -0.211075D-03  0.712927D-01
     16   0.736679D-02  0.855704D-02 -0.497991D-01 -0.381898D-01 -0.242366D-01
                11            12            13            14            15 
      1  -0.359413D+04 -0.359413D+04 -0.359413D+04 -0.359413D+04 -0.359413D+04
      2   0.376490D-01  0.965377D-01 -0.966021D-01 -0.561558D-01 -0.545536D-01
      3   0.325209D-02 -0.415090D-01 -0.174810D+00 -0.192108D+00 -0.838304D-01
      4   0.131094D+00 -0.761715D-01  0.215436D-01 -0.587943D-01  0.441432D-01
      5  -0.254163D-02 -0.518378D-02  0.470297D-02  0.444092D-02  0.373352D-02
      6  -0.587644D-03  0.254004D-02  0.116504D-01  0.150082D-01  0.773664D-02
      7  -0.901589D-02  0.511100D-02 -0.191284D-02  0.443524D-02 -0.283466D-02
      8   0.188348D-02 -0.308069D-01  0.418195D-01  0.197153D-01 -0.324580D-01
      9   0.599387D-01  0.601676D-01  0.143069D-01 -0.734069D-01 -0.143784D+00
     10   0.279825D-01  0.993525D-01  0.348317D-01 -0.143865D+00  0.314408D-01
     11   0.998857D-02 -0.217892D-01  0.371668D-02 -0.189762D-01 -0.157283D-01
     12  -0.375751D-01  0.500712D-01  0.960448D-01  0.118831D+00  0.349592D-01
     13  -0.869588D-04 -0.391922D-01 -0.672689D-01 -0.614409D-01 -0.128774D-01
     14   0.250152D-01 -0.106867D-01  0.166386D-02 -0.106031D-01 -0.334688D-02
     15  -0.182213D-01 -0.299586D-01  0.326212D-01  0.219745D-01  0.118920D-01
     16   0.129097D-02  0.797612D-02  0.456420D-02  0.145143D-01 -0.923798D-02
                16            17            18            19            20 
      1  -0.359413D+04 -0.359413D+04 -0.359412D+04 -0.359411D+04 -0.359410D+04
      2   0.252728D+00  0.327271D+00  0.114684D-01  0.791533D-01  0.955747D-01
      3   0.381589D+00  0.105268D+01  0.171298D+00  0.347432D-01  0.954840D-01
      4  -0.941901D+00  0.415974D+00 -0.800842D-01 -0.169084D+00 -0.728260D-01
      5  -0.184951D-01 -0.275510D-01 -0.284978D-02 -0.806547D-02 -0.104567D-01
      6  -0.293708D-01 -0.836464D-01 -0.140703D-01 -0.968875D-03 -0.830251D-02
      7   0.725487D-01 -0.339052D-01  0.656226D-02  0.154160D-01  0.692295D-02
      8   0.823425D-01 -0.161645D+00  0.104883D+00  0.456283D+00  0.187318D+00
      9   0.119788D-01 -0.178875D+00 -0.802588D-01  0.569354D+00  0.135258D+01
     10   0.269496D+00 -0.492150D-01 -0.158199D-01 -0.124215D+01  0.779680D+00
     11  -0.443073D-02  0.131146D+00  0.585373D-01  0.437773D-01  0.213124D-01
     12  -0.389742D-01 -0.737156D+00 -0.155222D+00 -0.218303D-01  0.143114D-01
     13  -0.103224D+00  0.329332D+00 -0.996250D-01 -0.864662D-02 -0.338626D-01
     14  -0.971395D-01  0.488007D-02 -0.492036D-01  0.110684D-01 -0.376885D-01
     15  -0.148885D+00 -0.265255D+00  0.144264D-01  0.641013D-02 -0.160182D-01
     16   0.937018D-01  0.476122D-01  0.288788D-01  0.105516D-01  0.271389D-01
                21            22            23            24            25 
      1  -0.359410D+04 -0.359410D+04 -0.359410D+04 -0.359410D+04 -0.359409D+04
      2  -0.151032D+00  0.143164D+00 -0.153437D+00  0.181374D-01 -0.839778D-01
      3   0.212620D+00  0.204832D+00 -0.405934D+00  0.137549D+00 -0.118225D+00
      4   0.509074D+00 -0.192411D-01  0.140442D+00 -0.109072D+00 -0.865744D-01
      5   0.213918D-01 -0.123722D-01  0.152378D-01  0.313022D-03  0.918768D-02
      6  -0.243387D-01 -0.201635D-01  0.412805D-01 -0.155031D-01  0.114757D-01
      7  -0.489250D-01 -0.427312D-03 -0.152229D-01  0.100328D-01  0.822341D-02
      8   0.137964D+00 -0.117839D+01 -0.753953D+00 -0.175202D+00 -0.130367D+00
      9   0.352619D+00  0.411140D+00 -0.119286D+00 -0.765304D-01 -0.211096D+00
     10  -0.151543D+00 -0.167840D+00 -0.367727D+00 -0.128090D+00 -0.109822D+00
     11   0.420716D-01  0.470203D-01 -0.744151D-01 -0.219287D-01 -0.205084D+00
     12  -0.313860D+00 -0.210671D+00  0.299976D+00 -0.193427D+00 -0.155161D+00
     13   0.141825D+00  0.774753D-01 -0.798699D-01 -0.797494D-01  0.271034D+00
     14   0.861060D-01  0.251798D-01  0.388236D-01  0.650050D-03  0.113757D+00
     15  -0.843037D-02 -0.137944D+00  0.174656D+00 -0.598245D-02 -0.716116D-01
     16  -0.286867D-01  0.522543D-01 -0.879686D-01  0.351568D-01 -0.402024D-01
                26            27            28            29            30 
      1  -0.359409D+04 -0.359409D+04 -0.359409D+04 -0.359409D+04 -0.359409D+04
      2  -0.786127D-01  0.398891D-01  0.163639D+00  0.120139D-01  0.969436D-01
      3  -0.555509D-01 -0.318955D+00  0.430397D-02 -0.356032D+00  0.536269D-01
      4  -0.697765D-01  0.779968D-01 -0.352393D+00 -0.354756D+00  0.180743D-01
      5   0.874824D-02 -0.530211D-02 -0.185023D-01  0.119818D-02 -0.100309D-01
      6   0.507634D-02  0.320601D-01 -0.301419D-02  0.368825D-01 -0.296843D-02
      7   0.788400D-02 -0.100617D-01  0.452626D-01  0.344834D-01 -0.377897D-02
      8  -0.156382D+00 -0.517899D-01 -0.292722D+00  0.212836D+00  0.109037D+00
      9  -0.524658D-01 -0.293946D+00  0.228434D-01  0.201941D+00 -0.370628D-02
     10   0.211997D-01 -0.859778D-01  0.969486D-01 -0.149179D+00  0.206038D-01
     11  -0.831265D-01 -0.169828D+00 -0.350960D-01 -0.116762D+00  0.946543D-01
     12   0.671802D-03  0.492923D-01 -0.106623D+00  0.335704D+00  0.345826D-02
     13  -0.137102D-01  0.165600D+00  0.431030D-02 -0.121602D+00 -0.328839D-01
     14  -0.135040D-01  0.126349D+00  0.408301D-01 -0.914696D-01  0.175599D-01
     15   0.106978D-01 -0.144296D-01 -0.117828D+00  0.140746D+00 -0.948072D-01
     16  -0.117487D-01 -0.933819D-01 -0.117407D-01 -0.129900D-01  0.775364D-01
                31            32            33            34            35 
      1  -0.359409D+04 -0.359409D+04 -0.359409D+04 -0.359409D+04 -0.359409D+04
      2  -0.128065D+00 -0.129224D+00  0.237078D+00 -0.931574D-01  0.203103D+00
      3  -0.101140D+00 -0.551381D-02  0.973722D-01  0.433448D-01 -0.129130D+00
      4  -0.477544D-01  0.140346D+00 -0.359555D-02  0.200508D+00  0.173362D+00
      5   0.136446D-01  0.151363D-01 -0.224248D-01  0.113128D-01 -0.243140D-01
      6   0.760482D-02 -0.307407D-02 -0.104519D-01 -0.453940D-02  0.123886D-01
      7   0.716820D-02 -0.160110D-01 -0.103194D-03 -0.227796D-01 -0.185092D-01
      8  -0.799372D-01  0.652989D-01 -0.162923D+00 -0.211722D+00 -0.399550D-01
      9   0.441854D-01 -0.114099D-01  0.213580D-01 -0.106682D+00  0.266804D+00
     10   0.404975D-01  0.109849D+00 -0.122307D+00 -0.141488D+00  0.281266D-01
     11  -0.189884D-01  0.586512D-01  0.138083D+00 -0.157161D+00  0.152695D+00
     12   0.212520D-01  0.124040D+00 -0.806612D-01 -0.156750D+00  0.389069D-01
     13  -0.125295D+00 -0.213165D+00  0.533072D-02  0.205555D+00 -0.209536D+00
     14  -0.388293D-01 -0.116326D+00  0.712330D-01 -0.114413D+00  0.320824D-02
     15   0.733918D-01  0.254747D+00  0.111049D+00 -0.197279D+00  0.620452D-01
     16  -0.402423D-01 -0.624817D-01 -0.204927D-01  0.358046D-03 -0.452579D-03
                36            37            38            39            40 
      1  -0.359409D+04 -0.359409D+04 -0.359409D+04 -0.359409D+04 -0.359408D+04
      2   0.663778D-01  0.182506D+00  0.286710D-01 -0.371681D-01 -0.152258D+00
      3   0.123891D+00 -0.280891D+00 -0.285252D-01  0.381911D-01  0.130811D+00
      4   0.642805D-01 -0.334271D-01 -0.447933D-01 -0.102517D-01  0.203194D-01
      5  -0.694687D-02 -0.222951D-01 -0.363309D-02  0.558552D-02  0.217991D-01
      6  -0.160054D-01  0.327867D-01  0.379989D-02 -0.464887D-02 -0.162290D-01
      7  -0.637733D-02  0.461214D-02  0.527395D-02 -0.790621D-03 -0.345145D-02
      8  -0.780714D-01 -0.860273D-01  0.435919D-01 -0.469683D-01 -0.101314D+00
      9   0.830509D-01  0.947703D-02  0.545031D-01  0.104193D-01 -0.905120D-01
     10  -0.151348D+00  0.210403D+00 -0.547106D-01  0.100292D+00  0.410655D+00
     11  -0.172960D+00 -0.149774D+00  0.640224D-01 -0.545966D-01 -0.317465D+00
     12   0.659863D-02  0.331290D+00 -0.113656D+00  0.562774D-01  0.260650D+00
     13   0.776226D-01 -0.109452D+00  0.418326D-01 -0.728808D-02 -0.198479D-01
     14   0.245529D-01 -0.603536D-02  0.447790D-01 -0.267563D-01 -0.159589D+00
     15  -0.100495D+00 -0.112867D-02  0.106971D-01  0.266531D-01 -0.910613D-01
     16   0.866341D-01 -0.564437D-01 -0.182928D-01  0.188363D-01  0.141216D+00
                41            42            43            44            45 
      1  -0.359408D+04 -0.359408D+04 -0.359408D+04 -0.359408D+04 -0.359408D+04
      2  -0.219402D-01  0.392964D-01  0.138270D+00  0.125462D+00 -0.386865D-01
      3   0.111580D+00  0.533417D-01 -0.204723D+00 -0.211365D-01 -0.277021D+00
      4  -0.128070D+00 -0.406277D-01  0.109282D+00  0.185426D+00 -0.129920D+00
      5   0.371758D-02 -0.540101D-02 -0.182469D-01 -0.151998D-01  0.498453D-02
      6  -0.139691D-01 -0.613010D-02  0.247906D-01  0.457804D-02  0.320195D-01
      7   0.135997D-01  0.496382D-02 -0.113554D-01 -0.225342D-01  0.152375D-01
      8   0.109863D+00  0.133392D+00 -0.590033D-01 -0.508480D-01 -0.146514D+00
      9  -0.204303D-01 -0.140487D+00 -0.116417D+00 -0.153676D+00 -0.838123D-01
     10   0.817131D-01 -0.207114D-01 -0.304256D+00  0.500312D+00 -0.142601D+00
     11   0.782880D-01  0.174547D+00  0.149557D+00 -0.145255D+00 -0.311306D-02
     12  -0.168928D+00 -0.134714D+00 -0.153888D+00  0.708802D-01 -0.482716D-01
     13   0.994342D-02 -0.232477D-01  0.551914D-01 -0.670305D-01  0.684374D-01
     14  -0.137087D+00  0.514867D-01  0.118392D+00  0.359037D-01  0.461716D-01
     15  -0.387365D-01  0.319784D-01  0.293532D-01 -0.270729D+00 -0.360182D-01
     16   0.372544D-01 -0.186949D-01 -0.132702D+00  0.104190D+00 -0.224611D-02
                46            47            48            49            50 
      1  -0.359408D+04 -0.359408D+04 -0.359408D+04 -0.359408D+04 -0.359408D+04
      2   0.278250D+00  0.205626D+00 -0.680407D-01 -0.138191D+00  0.271117D+00
      3  -0.396429D+00  0.664353D-01 -0.635827D-01  0.402994D+00 -0.333269D+00
      4   0.190091D+00  0.344083D+00  0.262238D-01  0.285287D+00 -0.477391D+00
      5  -0.324683D-01 -0.241610D-01  0.753433D-02  0.153986D-01 -0.310528D-01
      6   0.462824D-01 -0.918517D-02  0.925775D-02 -0.483054D-01  0.396896D-01
      7  -0.223076D-01 -0.387732D-01 -0.412560D-02 -0.341158D-01  0.569925D-01
      8  -0.354464D+00  0.719236D-01 -0.593499D-01  0.217582D+00 -0.162376D+00
      9   0.135284D+00  0.425039D+00 -0.627125D-01  0.204478D+00 -0.155314D+00
     10   0.164188D+00  0.426233D+00 -0.997950D-01  0.240305D+00 -0.399976D+00
     11  -0.162671D+00  0.122444D+00 -0.599723D-01  0.192244D+00 -0.734095D-02
     12   0.268805D+00  0.363614D+00  0.115992D-02  0.196418D+00 -0.328245D+00
     13  -0.886225D-01 -0.332524D+00  0.473530D-01 -0.220637D+00  0.241495D+00
     14  -0.284405D-01 -0.127911D-01  0.160072D-01 -0.355343D-01  0.948587D-01
     15  -0.164349D+00  0.139206D+00  0.313082D-02  0.141338D+00 -0.804085D-01
     16  -0.794843D-01  0.138319D-01 -0.209192D-01  0.813260D-01 -0.627726D-01
                51            52            53            54            55 
      1  -0.359408D+04 -0.359408D+04 -0.359408D+04 -0.359408D+04 -0.359408D+04
      2   0.762988D-01 -0.278535D+00 -0.416493D+00  0.531726D+00  0.531740D+00
      3  -0.187751D-01  0.233300D+00  0.692022D+00 -0.586918D+00  0.158585D+00
      4   0.250271D-02 -0.382919D-01  0.124766D+00  0.696438D+00 -0.592420D+00
      5  -0.879598D-02  0.334580D-01  0.491916D-01 -0.633856D-01 -0.613991D-01
      6   0.297192D-02 -0.282955D-01 -0.818699D-01  0.693930D-01 -0.208245D-01
      7   0.365771D-03  0.444921D-02 -0.151221D-01 -0.829408D-01  0.705265D-01
      8   0.302651D-02  0.150015D+00  0.724874D-01 -0.597127D+00 -0.182905D-01
      9  -0.130280D-02 -0.101022D+00  0.167650D-01  0.504654D+00  0.495334D+00
     10   0.711417D-01 -0.766605D-01 -0.259121D+00  0.778027D+00 -0.491373D-01
     11  -0.186015D-01 -0.242647D-01  0.117523D+00 -0.980364D-01  0.931061D+00
     12   0.490767D-01 -0.131109D+00 -0.702735D-01  0.793718D+00 -0.187046D+00
     13  -0.403932D-01  0.804741D-01 -0.326201D-01 -0.525299D+00 -0.389236D+00
     14   0.830413D-02 -0.298168D-01 -0.824780D-01 -0.466777D-01  0.639567D-01
     15  -0.345591D-03  0.146544D-01  0.117950D+00 -0.119281D+00  0.233252D+00
     16   0.222755D-01  0.312242D-01  0.159443D+00 -0.895766D-01  0.191468D+00
                56            57            58            59            60 
      1  -0.359408D+04 -0.359408D+04 -0.359408D+04 -0.359408D+04 -0.359408D+04
      2  -0.128294D+01  0.192047D-01  0.687381D+00 -0.600744D-01 -0.210911D+00
      3  -0.114956D+00 -0.502244D-01 -0.560041D+00  0.211016D-01  0.128199D+00
      4   0.849046D+00  0.130717D+00 -0.419478D-01  0.610551D-01 -0.531849D-01
      5   0.154464D+00 -0.270508D-02 -0.796753D-01  0.661388D-02  0.253466D-01
      6   0.138359D-01  0.562257D-02  0.658388D-01 -0.396785D-02 -0.147481D-01
      7  -0.100313D+00 -0.137275D-01  0.544268D-02 -0.793351D-02  0.703894D-02
      8   0.267322D-01 -0.104434D-01 -0.311139D+00 -0.132375D-01  0.140862D+00
      9  -0.611888D+00 -0.789227D-01 -0.212484D+00 -0.125289D+00 -0.651216D-01
     10   0.509797D-01  0.288298D+00  0.179005D+00  0.113552D-02 -0.224062D-01
     11  -0.471578D+00 -0.146725D+00 -0.158941D+00 -0.215068D+00  0.119044D+00
     12   0.803190D-01  0.123822D+00  0.280278D+00  0.205669D+00 -0.222000D+00
     13   0.266748D+00 -0.343188D-01  0.878692D-01  0.490003D-01  0.962737D-01
     14  -0.780875D-01 -0.104315D+00  0.590727D-01 -0.839924D-01 -0.100205D+00
     15  -0.518682D-01 -0.119774D+00 -0.212762D+00 -0.235309D-01  0.231012D-01
     16  -0.146319D+00 -0.911333D-01 -0.902964D-01 -0.812096D-02 -0.753934D-01
 Unable to Open any file for archive entry.
 1\1\GINC-X1000C0S2B0N0\SP\RTPSSTPSS TD-FC\Gen\C36H27Fe1N9O6(2+)\PNG4RJ
 V\30-Oct-2023\0\\#p TPSSTPSS chkbasis geom=allcheck Guess=Read int=ult
 rafine scrf=(SMD,solvent=Acetonitrile) td=(NStates=60)\\Title\\2,1\Fe,
 0,-0.1884843499,1.0045270452,-0.1655736124\N,0,-0.4723292682,2.9281659
 164,-0.5096969881\C,0,0.4486105556,3.7485249154,0.0935548241\C,0,-1.40
 03283777,3.4973226046,-1.3072092521\C,0,0.4364028885,5.1431346719,-0.0
 631156133\C,0,-1.4668249406,4.8823862696,-1.5101070373\H,0,-2.10984713
 36,2.8298568548,-1.800024587\C,0,-0.5419095479,5.722903897,-0.87723239
 14\H,0,1.1937138111,5.744872133,0.4470799844\H,0,-2.2461992059,5.28381
 93339,-2.1639517368\H,0,-0.5782376752,6.806744885,-1.0210720207\C,0,1.
 4181797017,3.0337741601,0.8889814247\H,0,2.1898050891,3.5697445862,1.4
 550660487\N,0,1.3268278494,1.7273977093,0.9011133777\C,0,2.3256255009,
 1.0170866276,1.6456712905\C,0,3.695422749,1.2400895722,1.3837968318\C,
 0,1.9492069362,0.107781334,2.6458377993\C,0,4.6783779362,0.5444401627,
 2.1016929644\H,0,3.9893177156,1.9517498422,0.6062250542\C,0,2.95457699
 23,-0.5632362575,3.3475304054\H,0,0.9079847704,-0.0575761201,2.9177148
 802\C,0,4.3185365056,-0.373488129,3.0944834787\H,0,5.7351725715,0.7199
 915902,1.8789829824\N,0,-1.3002887812,0.9321605099,1.4544713107\C,0,-1
 .492628953,-0.3356345031,1.9477349557\C,0,-1.8681392196,1.9635641753,2
 .1125445949\C,0,-2.2796971042,-0.59202421,3.0809493299\C,0,-2.65690506
 41,1.7782081991,3.2561465953\H,0,-1.6984554496,2.9645889058,1.70973248
 3\C,0,-2.8767815313,0.4841847294,3.7460221854\H,0,-2.3995594197,-1.622
 4591813,3.4267182033\H,0,-3.0924445263,2.6534720235,3.746179444\H,0,-3
 .4940055182,0.3176607734,4.6337594434\C,0,-0.7535903343,-1.3496783137,
 1.2314786082\H,0,-0.8115500395,-2.4037861503,1.5282625629\N,0,0.029018
 6452,-0.9320735116,0.2678039624\C,0,0.7587088996,-1.9056830299,-0.4812
 630926\C,0,0.1381939618,-3.0927894931,-0.9303303013\C,0,2.1112504164,-
 1.6730280276,-0.7779242491\C,0,0.8679257432,-4.0388395577,-1.663805599
 9\H,0,-0.9199424881,-3.2693178644,-0.7169280304\C,0,2.8096608531,-2.63
 81882656,-1.5072392704\H,0,2.6266965722,-0.7811236191,-0.4255741302\C,
 0,2.2182028525,-3.8234062415,-1.9624294525\H,0,0.3723744689,-4.9503072
 538,-2.0116851922\N,0,0.8004406802,0.9408809384,-1.8869981529\C,0,0.04
 04446969,0.5241143596,-2.9513299567\C,0,2.0751162198,1.3069672418,-2.1
 316851525\C,0,0.5458660764,0.4407403385,-4.2577008554\C,0,2.6443872874
 ,1.250885544,-3.4112484259\H,0,2.6678038261,1.6482723155,-1.2819462456
 \C,0,1.8751841338,0.8066694295,-4.4934920924\H,0,-0.1087928705,0.09524
 57012,-5.0626338523\H,0,3.6874670213,1.5532801583,-3.5386475484\H,0,2.
 2994926081,0.7516727009,-5.5002903026\C,0,-1.3197428155,0.1928665546,-
 2.596394101\H,0,-2.0216990075,-0.1953902312,-3.3447429044\N,0,-1.66910
 7973,0.3965226158,-1.352668128\C,0,-2.9786669178,-0.0229307036,-0.9515
 876446\C,0,-3.370154305,-1.3523744877,-1.1820563357\C,0,-3.8692811793,
 0.8736333469,-0.3248698088\C,0,-4.646838979,-1.7522799307,-0.774179641
 8\H,0,-2.697861281,-2.0679053523,-1.6587990226\C,0,-5.1464151997,0.442
 9230353,0.0578097636\H,0,-3.5751764245,1.9129047206,-0.1625449153\C,0,
 -5.5509256767,-0.8811000653,-0.1572710056\H,0,-5.8346563598,1.15048900
 95,0.529777671\N,0,-5.0435674754,-3.1606081638,-1.0008256084\O,0,-4.20
 04633266,-3.9281059994,-1.4755515619\O,0,-6.1937732749,-3.4898174855,-
 0.7012344077\N,0,4.2358121747,-2.3829118037,-1.8145755022\O,0,4.860234
 589,-3.2592416491,-2.4173475817\O,0,4.7205996524,-1.3052620519,-1.4551
 022052\N,0,2.5472456453,-1.5143463237,4.4077777992\O,0,1.3393863988,-1
 .6664572703,4.6147590728\O,0,3.4377696339,-2.104325146,5.0241490048\H,
 0,-6.5379419047,-1.2387819494,0.1435787254\H,0,2.8047091131,-4.5440369
 783,-2.5362470981\H,0,5.064936156,-0.9302131165,3.6649835532\\Version=
 AS64L-G16RevC.02\State=1-A\HF=-3594.2063188\RMSD=8.286e-09\PG=C01 [X(C
 36H27Fe1N9O6)]\\@
 The archive entry for this job was punched.


 QUANTUM MECHANICS IS BOHRING -- M.S. GORDON
 Job cpu time:       1 days  8 hours  8 minutes 36.0 seconds.
 Elapsed time:       0 days  2 hours 44 minutes 25.6 seconds.
 File lengths (MBytes):  RWF=  16669 Int=      0 D2E=      0 Chk=   1636 Scr=      1
 Normal termination of Gaussian 16 at Mon Oct 30 19:36:27 2023.
