 Entering Gaussian System, Link 0=g16
 Input=/project/home/png4rjv/photocat/TMPC_bench/gaussian/FeC_4_CAM-B3LYP-D3_def2SVP.gjf
 Output=/project/home/png4rjv/photocat/TMPC_bench/gaussian/FeC_4_CAM-B3LYP-D3_def2SVP.log
 Initial command:
 /opt/software/packages/g16/l1.exe "/scratch/ligandum/png4rjv/3278408/Gau-2704776.inp" -scrdir="/scratch/ligandum/png4rjv/3278408/"
 Default is to use a total of  12 processors:
                               12 via shared-memory
                                1 via Linda
 Entering Link 1 = /opt/software/packages/g16/l1.exe PID=   2704777.
  
 Copyright (c) 1988-2021, Gaussian, Inc.  All Rights Reserved.
  
 This is part of the Gaussian(R) 16 program.  It is based on
 the Gaussian(R) 09 system (copyright 2009, Gaussian, Inc.),
 the Gaussian(R) 03 system (copyright 2003, Gaussian, Inc.),
 the Gaussian(R) 98 system (copyright 1998, Gaussian, Inc.),
 the Gaussian(R) 94 system (copyright 1995, Gaussian, Inc.),
 the Gaussian 92(TM) system (copyright 1992, Gaussian, Inc.),
 the Gaussian 90(TM) system (copyright 1990, Gaussian, Inc.),
 the Gaussian 88(TM) system (copyright 1988, Gaussian, Inc.),
 the Gaussian 86(TM) system (copyright 1986, Carnegie Mellon
 University), and the Gaussian 82(TM) system (copyright 1983,
 Carnegie Mellon University). Gaussian is a federally registered
 trademark of Gaussian, Inc.
  
 This software contains proprietary and confidential information,
 including trade secrets, belonging to Gaussian, Inc.
  
 This software is provided under written license and may be
 used, copied, transmitted, or stored only in accord with that
 written license.
  
 The following legend is applicable only to US Government
 contracts under FAR:
  
                    RESTRICTED RIGHTS LEGEND
  
 Use, reproduction and disclosure by the US Government is
 subject to restrictions as set forth in subparagraphs (a)
 and (c) of the Commercial Computer Software - Restricted
 Rights clause in FAR 52.227-19.
  
 Gaussian, Inc.
 340 Quinnipiac St., Bldg. 40, Wallingford CT 06492
  
  
 ---------------------------------------------------------------
 Warning -- This program may not be used in any manner that
 competes with the business of Gaussian, Inc. or will provide
 assistance to any competitor of Gaussian, Inc.  The licensee
 of this program is prohibited from giving any competitor of
 Gaussian, Inc. access to this program.  By using this program,
 the user acknowledges that Gaussian, Inc. is engaged in the
 business of creating and licensing software in the field of
 computational chemistry and represents and warrants to the
 licensee that it is not a competitor of Gaussian, Inc. and that
 it will not use this program in any manner prohibited above.
 ---------------------------------------------------------------
  

 Cite this work as:
 Gaussian 16, Revision C.02,
 M. J. Frisch, G. W. Trucks, H. B. Schlegel, G. E. Scuseria, 
 M. A. Robb, J. R. Cheeseman, G. Scalmani, V. Barone, 
 G. A. Petersson, H. Nakatsuji, X. Li, M. Caricato, A. V. Marenich, 
 J. Bloino, B. G. Janesko, R. Gomperts, B. Mennucci, H. P. Hratchian, 
 J. V. Ortiz, A. F. Izmaylov, J. L. Sonnenberg, D. Williams-Young, 
 F. Ding, F. Lipparini, F. Egidi, J. Goings, B. Peng, A. Petrone, 
 T. Henderson, D. Ranasinghe, V. G. Zakrzewski, J. Gao, N. Rega, 
 G. Zheng, W. Liang, M. Hada, M. Ehara, K. Toyota, R. Fukuda, 
 J. Hasegawa, M. Ishida, T. Nakajima, Y. Honda, O. Kitao, H. Nakai, 
 T. Vreven, K. Throssell, J. A. Montgomery, Jr., J. E. Peralta, 
 F. Ogliaro, M. J. Bearpark, J. J. Heyd, E. N. Brothers, K. N. Kudin, 
 V. N. Staroverov, T. A. Keith, R. Kobayashi, J. Normand, 
 K. Raghavachari, A. P. Rendell, J. C. Burant, S. S. Iyengar, 
 J. Tomasi, M. Cossi, J. M. Millam, M. Klene, C. Adamo, R. Cammi, 
 J. W. Ochterski, R. L. Martin, K. Morokuma, O. Farkas, 
 J. B. Foresman, and D. J. Fox, Gaussian, Inc., Wallingford CT, 2019.
 
 ******************************************
 Gaussian 16:  AS64L-G16RevC.02  7-Dec-2021
                 6-Dec-2023 
 ******************************************
 %chk=cp.chk
 %NProcshared=8
 Will use up to    8 processors via shared memory.
 Default route: MaxDisk=500GB
 ----------------------------------------------------------------------
 #p cam-b3lyp/def2svp freq=noraman Symmetry=None int=ultrafine scrf=(SM
 D,solvent=Acetonitrile) EmpiricalDispersion=GD3BJ
 ----------------------------------------------------------------------
 1/10=4,30=1,38=1/1,3;
 2/12=2,15=3,17=6,18=5,40=1/2;
 3/5=43,7=101,11=2,25=1,30=1,70=32201,71=2,72=2,74=-40,75=-5,124=41,140=1/1,2,3;
 4//1;
 5/5=2,38=5,53=2,98=1/2;
 8/6=4,10=90,11=11/1;
 11/6=1,8=1,9=11,15=111,16=1,31=1/1,2,10;
 10/6=1,31=1/2;
 6/7=2,8=2,9=2,10=2,28=1/1;
 7/8=1,10=1,25=1,30=1/1,2,3,16;
 1/10=4,30=1/3;
 99//99;
 Leave Link    1 at Wed Dec  6 10:59:28 2023, MaxMem=           0 cpu:               0.1 elap:               0.1
 (Enter /opt/software/packages/g16/l101.exe)
 -----
 Title
 -----
 Symbolic Z-matrix:
 Charge =  2 Multiplicity = 1
 Fe                   -0.19349   1.04897  -0.17907 
 N                    -0.44972   2.99999  -0.50682 
 C                     0.4734    3.77534   0.10288 
 C                    -1.36733   3.58356  -1.27376 
 C                     0.49213   5.15722  -0.02134 
 C                    -1.41619   4.96526  -1.45081 
 H                    -2.08897   2.93384  -1.76882 
 C                    -0.47787   5.76542  -0.81441 
 H                     1.25932   5.73584   0.49461 
 H                    -2.19063   5.39494  -2.08717 
 H                    -0.49462   6.8498   -0.9357 
 C                     1.44867   3.03338   0.89418 
 H                     2.23549   3.56783   1.43916 
 N                     1.34214   1.7577    0.91238 
 C                     2.30437   0.99038   1.62387 
 C                     3.65788   1.05233   1.28336 
 C                     1.88099   0.12923   2.63148 
 C                     4.58244   0.2331    1.92614 
 H                     3.98569   1.72941   0.49343 
 C                     2.82448  -0.67136   3.2542 
 H                     0.84422   0.0883    2.9498 
 C                     4.17273  -0.64798   2.91872 
 H                     5.63382   0.27767   1.63874 
 N                    -1.34417   0.97485   1.44986 
 C                    -1.53854  -0.2791    1.91479 
 C                    -1.94537   1.9858    2.07134 
 C                    -2.36278  -0.55935   2.99473 
 C                    -2.78327   1.7891    3.16776 
 H                    -1.76991   2.9882    1.68019 
 C                    -3.00394   0.50021   3.63194 
 H                    -2.48674  -1.59092   3.32612 
 H                    -3.25589   2.65089   3.63999 
 H                    -3.66114   0.31813   4.48384 
 C                    -0.77542  -1.30479   1.21396 
 H                    -0.85896  -2.35217   1.52506 
 N                     0.00605  -0.91601   0.27588 
 C                     0.75432  -1.86873  -0.46 
 C                     0.18283  -3.06031  -0.91633 
 C                     2.07901  -1.57349  -0.76745 
 C                     0.93717  -3.952    -1.67529 
 H                    -0.86089  -3.28481  -0.69139 
 C                     2.80171  -2.47683  -1.52671 
 H                     2.54903  -0.66136  -0.41752 
 C                     2.2602   -3.66856  -1.99348 
 H                     0.48002  -4.8761   -2.03227 
 N                     0.8244    0.97054  -1.91368 
 C                     0.09057   0.49038  -2.94125 
 C                     2.0866    1.31951  -2.14915 
 C                     0.6086    0.30963  -4.21584 
 C                     2.68324   1.17048  -3.39946 
 H                     2.65979   1.72102  -1.31547 
 C                     1.93893   0.64973  -4.44775 
 H                    -0.0277   -0.09342  -5.00464 
 H                     3.7271    1.45709  -3.52922 
 H                     2.38218   0.51355  -5.43563 
 C                    -1.28682   0.16242  -2.59672 
 H                    -1.94695  -0.28735  -3.3476 
 N                    -1.67086   0.41019  -1.4009 
 C                    -2.95626  -0.02186  -0.98039 
 C                    -3.29452  -1.36587  -1.10393 
 C                    -3.84547   0.87208  -0.37785 
 C                    -4.51744  -1.78851  -0.60186 
 H                    -2.6109   -2.07904  -1.55968 
 C                    -5.07076   0.42142   0.09901 
 H                    -3.57758   1.92379  -0.28847 
 C                    -5.41884  -0.9229   -0.00006 
 H                    -5.76145   1.12632   0.56402 
 N                    -4.84921  -3.2159   -0.6983 
 O                    -4.00019  -3.96788  -1.13274 
 O                    -5.95145  -3.5678   -0.33593 
 N                     4.18869  -2.13302  -1.86512 
 O                     4.83616  -2.94068  -2.49606 
 O                     4.61081  -1.05383  -1.49986 
 N                     2.36489  -1.59027   4.30497 
 O                     1.17556  -1.62723   4.5472 
 O                     3.19755  -2.26613   4.87048 
 H                    -6.36566  -1.29909   0.38396 
 H                     2.8633   -4.34682  -2.595 
 H                     4.87491  -1.30588   3.42807 
 
 ITRead=  0  0  0  0  0  0  0  0  0  0  0  0  0  0  0  0  0  0  0  0
 ITRead=  0  0  0  0  0  0  0  0  0  0  0  0  0  0  0  0  0  0  0  0
 ITRead=  0  0  0  0  0  0  0  0  0  0  0  0  0  0  0  0  0  0  0  0
 ITRead=  0  0  0  0  0  0  0  0  0  0  0  0  0  0  0  0  0  0  0
 MicOpt= -1 -1 -1 -1 -1 -1 -1 -1 -1 -1 -1 -1 -1 -1 -1 -1 -1 -1 -1 -1
 MicOpt= -1 -1 -1 -1 -1 -1 -1 -1 -1 -1 -1 -1 -1 -1 -1 -1 -1 -1 -1 -1
 MicOpt= -1 -1 -1 -1 -1 -1 -1 -1 -1 -1 -1 -1 -1 -1 -1 -1 -1 -1 -1 -1
 MicOpt= -1 -1 -1 -1 -1 -1 -1 -1 -1 -1 -1 -1 -1 -1 -1 -1 -1 -1 -1
 NAtoms=     79 NQM=       79 NQMF=       0 NMMI=      0 NMMIF=      0
                NMic=       0 NMicF=      0.
                    Isotopes and Nuclear Properties:
 (Nuclear quadrupole moments (NQMom) in fm**2, nuclear magnetic moments (NMagM)
  in nuclear magnetons)

  Atom         1           2           3           4           5           6           7           8           9          10
 IAtWgt=          56          14          12          12          12          12           1          12           1           1
 AtmWgt=  55.9349393  14.0030740  12.0000000  12.0000000  12.0000000  12.0000000   1.0078250  12.0000000   1.0078250   1.0078250
 NucSpn=           0           2           0           0           0           0           1           0           1           1
 AtZEff=  -0.0000000  -0.0000000  -0.0000000  -0.0000000  -0.0000000  -0.0000000  -0.0000000  -0.0000000  -0.0000000  -0.0000000
 NQMom=    0.0000000   2.0440000   0.0000000   0.0000000   0.0000000   0.0000000   0.0000000   0.0000000   0.0000000   0.0000000
 NMagM=    0.0000000   0.4037610   0.0000000   0.0000000   0.0000000   0.0000000   2.7928460   0.0000000   2.7928460   2.7928460
 AtZNuc=  26.0000000   7.0000000   6.0000000   6.0000000   6.0000000   6.0000000   1.0000000   6.0000000   1.0000000   1.0000000

  Atom        11          12          13          14          15          16          17          18          19          20
 IAtWgt=           1          12           1          14          12          12          12          12           1          12
 AtmWgt=   1.0078250  12.0000000   1.0078250  14.0030740  12.0000000  12.0000000  12.0000000  12.0000000   1.0078250  12.0000000
 NucSpn=           1           0           1           2           0           0           0           0           1           0
 AtZEff=  -0.0000000  -0.0000000  -0.0000000  -0.0000000  -0.0000000  -0.0000000  -0.0000000  -0.0000000  -0.0000000  -0.0000000
 NQMom=    0.0000000   0.0000000   0.0000000   2.0440000   0.0000000   0.0000000   0.0000000   0.0000000   0.0000000   0.0000000
 NMagM=    2.7928460   0.0000000   2.7928460   0.4037610   0.0000000   0.0000000   0.0000000   0.0000000   2.7928460   0.0000000
 AtZNuc=   1.0000000   6.0000000   1.0000000   7.0000000   6.0000000   6.0000000   6.0000000   6.0000000   1.0000000   6.0000000

  Atom        21          22          23          24          25          26          27          28          29          30
 IAtWgt=           1          12           1          14          12          12          12          12           1          12
 AtmWgt=   1.0078250  12.0000000   1.0078250  14.0030740  12.0000000  12.0000000  12.0000000  12.0000000   1.0078250  12.0000000
 NucSpn=           1           0           1           2           0           0           0           0           1           0
 AtZEff=  -0.0000000  -0.0000000  -0.0000000  -0.0000000  -0.0000000  -0.0000000  -0.0000000  -0.0000000  -0.0000000  -0.0000000
 NQMom=    0.0000000   0.0000000   0.0000000   2.0440000   0.0000000   0.0000000   0.0000000   0.0000000   0.0000000   0.0000000
 NMagM=    2.7928460   0.0000000   2.7928460   0.4037610   0.0000000   0.0000000   0.0000000   0.0000000   2.7928460   0.0000000
 AtZNuc=   1.0000000   6.0000000   1.0000000   7.0000000   6.0000000   6.0000000   6.0000000   6.0000000   1.0000000   6.0000000

  Atom        31          32          33          34          35          36          37          38          39          40
 IAtWgt=           1           1           1          12           1          14          12          12          12          12
 AtmWgt=   1.0078250   1.0078250   1.0078250  12.0000000   1.0078250  14.0030740  12.0000000  12.0000000  12.0000000  12.0000000
 NucSpn=           1           1           1           0           1           2           0           0           0           0
 AtZEff=  -0.0000000  -0.0000000  -0.0000000  -0.0000000  -0.0000000  -0.0000000  -0.0000000  -0.0000000  -0.0000000  -0.0000000
 NQMom=    0.0000000   0.0000000   0.0000000   0.0000000   0.0000000   2.0440000   0.0000000   0.0000000   0.0000000   0.0000000
 NMagM=    2.7928460   2.7928460   2.7928460   0.0000000   2.7928460   0.4037610   0.0000000   0.0000000   0.0000000   0.0000000
 AtZNuc=   1.0000000   1.0000000   1.0000000   6.0000000   1.0000000   7.0000000   6.0000000   6.0000000   6.0000000   6.0000000

  Atom        41          42          43          44          45          46          47          48          49          50
 IAtWgt=           1          12           1          12           1          14          12          12          12          12
 AtmWgt=   1.0078250  12.0000000   1.0078250  12.0000000   1.0078250  14.0030740  12.0000000  12.0000000  12.0000000  12.0000000
 NucSpn=           1           0           1           0           1           2           0           0           0           0
 AtZEff=  -0.0000000  -0.0000000  -0.0000000  -0.0000000  -0.0000000  -0.0000000  -0.0000000  -0.0000000  -0.0000000  -0.0000000
 NQMom=    0.0000000   0.0000000   0.0000000   0.0000000   0.0000000   2.0440000   0.0000000   0.0000000   0.0000000   0.0000000
 NMagM=    2.7928460   0.0000000   2.7928460   0.0000000   2.7928460   0.4037610   0.0000000   0.0000000   0.0000000   0.0000000
 AtZNuc=   1.0000000   6.0000000   1.0000000   6.0000000   1.0000000   7.0000000   6.0000000   6.0000000   6.0000000   6.0000000

  Atom        51          52          53          54          55          56          57          58          59          60
 IAtWgt=           1          12           1           1           1          12           1          14          12          12
 AtmWgt=   1.0078250  12.0000000   1.0078250   1.0078250   1.0078250  12.0000000   1.0078250  14.0030740  12.0000000  12.0000000
 NucSpn=           1           0           1           1           1           0           1           2           0           0
 AtZEff=  -0.0000000  -0.0000000  -0.0000000  -0.0000000  -0.0000000  -0.0000000  -0.0000000  -0.0000000  -0.0000000  -0.0000000
 NQMom=    0.0000000   0.0000000   0.0000000   0.0000000   0.0000000   0.0000000   0.0000000   2.0440000   0.0000000   0.0000000
 NMagM=    2.7928460   0.0000000   2.7928460   2.7928460   2.7928460   0.0000000   2.7928460   0.4037610   0.0000000   0.0000000
 AtZNuc=   1.0000000   6.0000000   1.0000000   1.0000000   1.0000000   6.0000000   1.0000000   7.0000000   6.0000000   6.0000000

  Atom        61          62          63          64          65          66          67          68          69          70
 IAtWgt=          12          12           1          12           1          12           1          14          16          16
 AtmWgt=  12.0000000  12.0000000   1.0078250  12.0000000   1.0078250  12.0000000   1.0078250  14.0030740  15.9949146  15.9949146
 NucSpn=           0           0           1           0           1           0           1           2           0           0
 AtZEff=  -0.0000000  -0.0000000  -0.0000000  -0.0000000  -0.0000000  -0.0000000  -0.0000000  -0.0000000  -0.0000000  -0.0000000
 NQMom=    0.0000000   0.0000000   0.0000000   0.0000000   0.0000000   0.0000000   0.0000000   2.0440000   0.0000000   0.0000000
 NMagM=    0.0000000   0.0000000   2.7928460   0.0000000   2.7928460   0.0000000   2.7928460   0.4037610   0.0000000   0.0000000
 AtZNuc=   6.0000000   6.0000000   1.0000000   6.0000000   1.0000000   6.0000000   1.0000000   7.0000000   8.0000000   8.0000000

  Atom        71          72          73          74          75          76          77          78          79
 IAtWgt=          14          16          16          14          16          16           1           1           1
 AtmWgt=  14.0030740  15.9949146  15.9949146  14.0030740  15.9949146  15.9949146   1.0078250   1.0078250   1.0078250
 NucSpn=           2           0           0           2           0           0           1           1           1
 AtZEff=  -0.0000000  -0.0000000  -0.0000000  -0.0000000  -0.0000000  -0.0000000  -0.0000000  -0.0000000  -0.0000000
 NQMom=    2.0440000   0.0000000   0.0000000   2.0440000   0.0000000   0.0000000   0.0000000   0.0000000   0.0000000
 NMagM=    0.4037610   0.0000000   0.0000000   0.4037610   0.0000000   0.0000000   2.7928460   2.7928460   2.7928460
 AtZNuc=   7.0000000   8.0000000   8.0000000   7.0000000   8.0000000   8.0000000   1.0000000   1.0000000   1.0000000
 Leave Link  101 at Wed Dec  6 10:59:28 2023, MaxMem=  2831155200 cpu:               0.0 elap:               0.1
 (Enter /opt/software/packages/g16/l103.exe)

 GradGradGradGradGradGradGradGradGradGradGradGradGradGradGradGradGradGrad
 Berny optimization.
 Initialization pass.
 Trust Radius=3.00D-01 FncErr=1.00D-07 GrdErr=1.00D-07 EigMax=2.50D+02 EigMin=1.00D-04
 Number of steps in this run=      2 maximum allowed number of steps=      2.
 GradGradGradGradGradGradGradGradGradGradGradGradGradGradGradGradGradGrad

 Leave Link  103 at Wed Dec  6 10:59:28 2023, MaxMem=  2831155200 cpu:               0.0 elap:               0.0
 (Enter /opt/software/packages/g16/l202.exe)
 Symmetry turned off by external request.
 Stoichiometry    C36H27FeN9O6
                          Input orientation:                          
 ---------------------------------------------------------------------
 Center     Atomic      Atomic             Coordinates (Angstroms)
 Number     Number       Type             X           Y           Z
 ---------------------------------------------------------------------
      1         26           0       -0.193488    1.048975   -0.179070
      2          7           0       -0.449724    2.999986   -0.506815
      3          6           0        0.473397    3.775336    0.102875
      4          6           0       -1.367331    3.583564   -1.273757
      5          6           0        0.492129    5.157224   -0.021337
      6          6           0       -1.416193    4.965257   -1.450806
      7          1           0       -2.088971    2.933837   -1.768824
      8          6           0       -0.477874    5.765424   -0.814412
      9          1           0        1.259324    5.735842    0.494612
     10          1           0       -2.190628    5.394945   -2.087165
     11          1           0       -0.494618    6.849800   -0.935700
     12          6           0        1.448665    3.033378    0.894179
     13          1           0        2.235489    3.567831    1.439162
     14          7           0        1.342141    1.757697    0.912378
     15          6           0        2.304371    0.990381    1.623870
     16          6           0        3.657879    1.052332    1.283363
     17          6           0        1.880992    0.129229    2.631476
     18          6           0        4.582441    0.233104    1.926142
     19          1           0        3.985693    1.729409    0.493427
     20          6           0        2.824483   -0.671357    3.254203
     21          1           0        0.844218    0.088299    2.949797
     22          6           0        4.172731   -0.647980    2.918715
     23          1           0        5.633817    0.277674    1.638744
     24          7           0       -1.344171    0.974854    1.449864
     25          6           0       -1.538539   -0.279102    1.914787
     26          6           0       -1.945374    1.985803    2.071341
     27          6           0       -2.362782   -0.559351    2.994727
     28          6           0       -2.783269    1.789099    3.167762
     29          1           0       -1.769914    2.988201    1.680191
     30          6           0       -3.003936    0.500213    3.631943
     31          1           0       -2.486743   -1.590918    3.326121
     32          1           0       -3.255893    2.650886    3.639989
     33          1           0       -3.661144    0.318125    4.483844
     34          6           0       -0.775419   -1.304793    1.213961
     35          1           0       -0.858957   -2.352169    1.525055
     36          7           0        0.006045   -0.916009    0.275883
     37          6           0        0.754322   -1.868727   -0.459998
     38          6           0        0.182828   -3.060314   -0.916329
     39          6           0        2.079006   -1.573488   -0.767448
     40          6           0        0.937173   -3.952000   -1.675291
     41          1           0       -0.860890   -3.284811   -0.691385
     42          6           0        2.801705   -2.476826   -1.526710
     43          1           0        2.549030   -0.661357   -0.417521
     44          6           0        2.260197   -3.668563   -1.993475
     45          1           0        0.480023   -4.876101   -2.032272
     46          7           0        0.824397    0.970540   -1.913680
     47          6           0        0.090565    0.490384   -2.941251
     48          6           0        2.086602    1.319507   -2.149153
     49          6           0        0.608603    0.309627   -4.215843
     50          6           0        2.683242    1.170475   -3.399457
     51          1           0        2.659787    1.721018   -1.315468
     52          6           0        1.938926    0.649728   -4.447751
     53          1           0       -0.027695   -0.093421   -5.004636
     54          1           0        3.727104    1.457087   -3.529219
     55          1           0        2.382178    0.513547   -5.435632
     56          6           0       -1.286819    0.162421   -2.596724
     57          1           0       -1.946954   -0.287345   -3.347604
     58          7           0       -1.670859    0.410189   -1.400898
     59          6           0       -2.956256   -0.021863   -0.980393
     60          6           0       -3.294521   -1.365868   -1.103932
     61          6           0       -3.845468    0.872080   -0.377846
     62          6           0       -4.517438   -1.788508   -0.601864
     63          1           0       -2.610896   -2.079039   -1.559678
     64          6           0       -5.070755    0.421416    0.099009
     65          1           0       -3.577577    1.923785   -0.288468
     66          6           0       -5.418841   -0.922899   -0.000058
     67          1           0       -5.761451    1.126317    0.564021
     68          7           0       -4.849214   -3.215897   -0.698295
     69          8           0       -4.000189   -3.967884   -1.132743
     70          8           0       -5.951447   -3.567798   -0.335925
     71          7           0        4.188691   -2.133020   -1.865115
     72          8           0        4.836164   -2.940679   -2.496063
     73          8           0        4.610812   -1.053831   -1.499862
     74          7           0        2.364892   -1.590272    4.304965
     75          8           0        1.175559   -1.627225    4.547200
     76          8           0        3.197546   -2.266127    4.870478
     77          1           0       -6.365661   -1.299092    0.383955
     78          1           0        2.863301   -4.346816   -2.594997
     79          1           0        4.874914   -1.305884    3.428067
 ---------------------------------------------------------------------
 Rotational constants (GHZ):           0.0695672           0.0549480           0.0528172
 Leave Link  202 at Wed Dec  6 10:59:28 2023, MaxMem=  2831155200 cpu:               0.0 elap:               0.0
 (Enter /opt/software/packages/g16/l301.exe)
 Standard basis: def2SVP (5D, 7F)
 Ernie: Thresh=  0.10000D-02 Tol=  0.10000D-05 Strict=F.
   880 basis functions,  1545 primitive gaussians,   936 cartesian basis functions
   189 alpha electrons      189 beta electrons
       nuclear repulsion energy      8260.7508850045 Hartrees.
 IExCor=20419 DFT=T Ex+Corr=CAM-B3LYP ExCW=0 ScaHFX=  1.000000
 ScaDFX=  1.000000  1.000000  1.000000  0.810000 ScalE2=  1.000000  1.000000
 IRadAn=      5 IRanWt=     -1 IRanGd=            0 ICorTp=0 IEmpDi=141
 HFx  wShort=  0.000000 wLong=  0.330000 cFull=  0.190000 cShort=  0.000000 cLong=  0.460000
 DFx  wShort=  0.000000 wLong=  0.330000 cFull=  0.190000 cShort=  0.000000 cLong=  0.460000
 NAtoms=   79 NActive=   79 NUniq=   79 SFac= 1.00D+00 NAtFMM=   60 NAOKFM=T Big=T
 Integral buffers will be    131072 words long.
 Raffenetti 2 integral format.
 Two-electron integral symmetry is turned off.
 R6Disp:  Grimme-D3(BJ) Dispersion energy=       -0.1333339922 Hartrees.
 Nuclear repulsion after empirical dispersion term =     8260.6175510123 Hartrees.
 Force inversion solution in PCM.
 ------------------------------------------------------------------------------
 Polarizable Continuum Model (PCM)
 =================================
 Model                : PCM.
 Atomic radii         : SMD-Coulomb.
 Polarization charges : Total charges.
 Charge compensation  : None.
 Solution method      : Matrix inversion.
 Cavity type          : VdW (van der Waals Surface) (Alpha=1.000).
 Cavity algorithm     : GePol (No added spheres)
                        Default sphere list used, NSphG=   79.
                        Lebedev-Laikov grids with approx.  5.0 points / Ang**2.
                        Smoothing algorithm: York/Karplus (Gamma=1.0000).
                        Polarization charges: spherical gaussians, with
                                              point-specific exponents (IZeta= 3).
                        Self-potential: point-specific (ISelfS= 7).
                        Self-field    : sphere-specific E.n sum rule (ISelfD= 2).
 1st derivatives      : Analytical E(r).r(x)/FMM algorithm (CHGder, D1EAlg=3).
                        Cavity 1st derivative terms included.
 2nd derivatives      : Analytical E(r).r(xy)/FMM algorithm (CHGder, D2EAlg=3).
                        Cavity 2nd derivative terms included.
 Solvent              : Acetonitrile, Eps=  35.688000 Eps(inf)=   1.806874
 ------------------------------------------------------------------------------
 GePol: Number of generator spheres                  =      79
 GePol: Total number of spheres                      =      79
 GePol: Number of exposed spheres                    =      78 ( 98.73%)
 GePol: Number of points                             =    5813
 GePol: Average weight of points                     =       0.12
 GePol: Minimum weight of points                     =   0.23D-10
 GePol: Maximum weight of points                     =    0.21559
 GePol: Number of points with low weight             =     362
 GePol: Fraction of low-weight points (<1% of avg)   =       6.23%
 GePol: Cavity surface area                          =    671.391 Ang**2
 GePol: Cavity volume                                =    741.250 Ang**3
 ------------------------------------------------------------------------------
 Atomic radii for non-electrostatic terms: SMD-CDS.
 ------------------------------------------------------------------------------
 PCM non-electrostatic energy =        -0.0103812674 Hartrees.
 Nuclear repulsion after PCM non-electrostatic terms =     8260.6071697448 Hartrees.
 Leave Link  301 at Wed Dec  6 10:59:28 2023, MaxMem=  2831155200 cpu:               0.1 elap:               0.1
 (Enter /opt/software/packages/g16/l302.exe)
 NPDir=0 NMtPBC=     1 NCelOv=     1 NCel=       1 NClECP=     1 NCelD=      1
         NCelK=      1 NCelE2=     1 NClLst=     1 CellRange=     0.0.
 One-electron integrals computed using PRISM.
   1 Symmetry operations used in ECPInt.
 ECPInt:  NShTT=   79401 NPrTT=  302260 LenC2=   65925 LenP2D=  157198.
 LDataN:  DoStor=T MaxTD1= 6 Len=  172
 NBasis=   880 RedAO= T EigKep=  2.09D-04  NBF=   880
 NBsUse=   880 1.00D-06 EigRej= -1.00D+00 NBFU=   880
 Precomputing XC quadrature grid using
 IXCGrd= 4 IRadAn=           5 IRanWt=          -1 IRanGd=           0 AccXCQ= 0.00D+00.
 Generated NRdTot=       0 NPtTot=           0 NUsed=           0 NTot=          32
 NSgBfM=   896   891   892   895   896 MxSgAt=    79 MxSgA2=    79.
 Leave Link  302 at Wed Dec  6 10:59:30 2023, MaxMem=  2831155200 cpu:              10.0 elap:               2.1
 (Enter /opt/software/packages/g16/l303.exe)
 DipDrv:  MaxL=1.
 Leave Link  303 at Wed Dec  6 10:59:31 2023, MaxMem=  2831155200 cpu:               0.2 elap:               0.1
 (Enter /opt/software/packages/g16/l401.exe)
 ExpMin= 3.37D-02 ExpMax= 6.09D+04 ExpMxC= 9.15D+03 IAcc=3 IRadAn=         5 AccDes= 0.00D+00
 Harris functional with IExCor=20419 and IRadAn=       5 diagonalized for initial guess.
 HarFok:  IExCor=20419 AccDes= 0.00D+00 IRadAn=         5 IDoV= 1 UseB2=F ITyADJ=14
 ICtDFT=  3500011 ScaDFX=  1.000000  1.000000  1.000000  1.000000
 FoFCou: FMM=F IPFlag=           0 FMFlag=      100000 FMFlg1=        2001
         NFxFlg=           0 DoJE=T BraDBF=F KetDBF=T FulRan=T
         wScrn=  0.000000 ICntrl=       500 IOpCl=  0 I1Cent=   200000004 NGrid=           0
         NMat0=    1 NMatS0=      1 NMatT0=    0 NMatD0=    1 NMtDS0=    0 NMtDT0=    0
 Symmetry not used in FoFCou.
 Harris En= -3493.91164711333    
 JPrj=0 DoOrth=F DoCkMO=F.
 Leave Link  401 at Wed Dec  6 10:59:42 2023, MaxMem=  2831155200 cpu:              85.9 elap:              11.4
 (Enter /opt/software/packages/g16/l502.exe)
 Two-electron integral symmetry not used.
 Closed shell SCF:
 Using DIIS extrapolation, IDIIS=  1040.
 NGot=  2831155200 LenX=  2829386092 LenY=  2828509060
 Requested convergence on RMS density matrix=1.00D-08 within 128 cycles.
 Requested convergence on MAX density matrix=1.00D-06.
 Requested convergence on             energy=1.00D-06.
 No special actions if energy rises.
 Fock matrices will be formed incrementally for  20 cycles.

 Cycle   1  Pass 1  IDiag  1:
 FoFJK:  IHMeth= 1 ICntrl=       0 DoSepK=T KAlg= 0 I1Cent=           0 FoldK=F
 IRaf=         1 NMat=       1 IRICut=       1 DoRegI=T DoRafI=F ISym2E= 0 IDoP0=0 IntGTp=1.
 FoFCou: FMM=T IPFlag=           0 FMFlag=      100000 FMFlg1=        2001
         NFxFlg=           0 DoJE=T BraDBF=F KetDBF=F FulRan=T
         wScrn=  0.000000 ICntrl=       500 IOpCl=  0 I1Cent=           0 NGrid=           0
         NMat0=    1 NMatS0=      1 NMatT0=    0 NMatD0=    1 NMtDS0=    0 NMtDT0=    0
 Symmetry not used in FoFCou.
 FMM levels:  10  Number of levels for PrismC:   9
 Inv3:  Mode=1 IEnd=   101372907.
 Iteration    1 A*A^-1 deviation from unit magnitude is 7.77D-15 for   5793.
 Iteration    1 A*A^-1 deviation from orthogonality  is 3.81D-15 for   5813   5653.
 Iteration    1 A^-1*A deviation from unit magnitude is 7.33D-15 for   5793.
 Iteration    1 A^-1*A deviation from orthogonality  is 1.72D-14 for   3111   3054.
 E= -3583.66427827394    
 DIIS: error= 6.92D-02 at cycle   1 NSaved=   1.
 NSaved= 1 IEnMin= 1 EnMin= -3583.66427827394     IErMin= 1 ErrMin= 6.92D-02
 ErrMax= 6.92D-02  0.00D+00 EMaxC= 1.00D-01 BMatC= 8.67D+00 BMatP= 8.67D+00
 IDIUse=3 WtCom= 3.08D-01 WtEn= 6.92D-01
 Coeff-Com:  0.100D+01
 Coeff-En:   0.100D+01
 Coeff:      0.100D+01
 Gap=    -0.448 Goal=   None    Shift=    0.000
 GapD=   -0.448 DampG=0.250 DampE=0.250 DampFc=0.1250 IDamp=-1.
 Damping current iteration by 1.25D-01
 RMSDP=5.03D-02 MaxDP=2.18D+01              OVMax= 9.89D-01

 Cycle   2  Pass 1  IDiag  1:
 RMSU=  6.29D-03    CP:  1.00D+00
 E= -3586.76662787613     Delta-E=       -3.102349602184 Rises=F Damp=T
 DIIS: error= 4.26D-02 at cycle   2 NSaved=   2.
 NSaved= 2 IEnMin= 2 EnMin= -3586.76662787613     IErMin= 2 ErrMin= 4.26D-02
 ErrMax= 4.26D-02  0.00D+00 EMaxC= 1.00D-01 BMatC= 2.82D+00 BMatP= 8.67D+00
 IDIUse=3 WtCom= 5.74D-01 WtEn= 4.26D-01
 Coeff-Com: -0.964D+00 0.196D+01
 Coeff-En:   0.000D+00 0.100D+01
 Coeff:     -0.553D+00 0.155D+01
 Gap=     0.128 Goal=   None    Shift=    0.000
 RMSDP=6.29D-03 MaxDP=1.25D+00 DE=-3.10D+00 OVMax= 8.68D-01

 Cycle   3  Pass 1  IDiag  1:
 RMSU=  4.91D-03    CP:  9.23D-01  3.98D-01
 E= -3580.91574202164     Delta-E=        5.850885854490 Rises=F Damp=F
 DIIS: error= 7.54D-02 at cycle   3 NSaved=   3.
 NSaved= 3 IEnMin= 2 EnMin= -3586.76662787613     IErMin= 2 ErrMin= 4.26D-02
 ErrMax= 7.54D-02  0.00D+00 EMaxC= 1.00D-01 BMatC= 1.12D+01 BMatP= 2.82D+00
 IDIUse=2 WtCom= 0.00D+00 WtEn= 1.00D+00
 EnCoef did   100 forward-backward iterations
 Coeff-En:   0.536D+00 0.665D-02 0.457D+00
 Coeff:      0.536D+00 0.665D-02 0.457D+00
 Gap=     0.013 Goal=   None    Shift=    0.000
 RMSDP=4.21D-03 MaxDP=1.38D+00 DE= 5.85D+00 OVMax= 7.07D-01

 Cycle   4  Pass 1  IDiag  1:
 RMSU=  2.66D-03    CP:  9.20D-01  6.49D-02  4.89D-01
 E= -3591.50950754804     Delta-E=      -10.593765526401 Rises=F Damp=F
 DIIS: error= 2.08D-02 at cycle   4 NSaved=   4.
 NSaved= 4 IEnMin= 4 EnMin= -3591.50950754804     IErMin= 4 ErrMin= 2.08D-02
 ErrMax= 2.08D-02  0.00D+00 EMaxC= 1.00D-01 BMatC= 1.21D+00 BMatP= 2.82D+00
 IDIUse=3 WtCom= 7.92D-01 WtEn= 2.08D-01
 Coeff-Com: -0.381D-01 0.427D+00 0.756D-01 0.535D+00
 Coeff-En:   0.162D+00 0.000D+00 0.000D+00 0.838D+00
 Coeff:      0.358D-02 0.338D+00 0.599D-01 0.598D+00
 Gap=     0.358 Goal=   None    Shift=    0.000
 RMSDP=2.45D-03 MaxDP=1.94D-01 DE=-1.06D+01 OVMax= 3.29D-01

 Cycle   5  Pass 1  IDiag  1:
 RMSU=  1.95D-03    CP:  9.25D-01  3.63D-02  5.04D-01  4.50D-01
 E= -3591.58129543744     Delta-E=       -0.071787889407 Rises=F Damp=F
 DIIS: error= 2.90D-02 at cycle   5 NSaved=   5.
 NSaved= 5 IEnMin= 5 EnMin= -3591.58129543744     IErMin= 4 ErrMin= 2.08D-02
 ErrMax= 2.90D-02  0.00D+00 EMaxC= 1.00D-01 BMatC= 1.40D+00 BMatP= 1.21D+00
 IDIUse=2 WtCom= 0.00D+00 WtEn= 1.00D+00
 EnCoef did     5 forward-backward iterations
 Coeff-En:   0.855D-01 0.000D+00 0.000D+00 0.479D+00 0.436D+00
 Coeff:      0.855D-01 0.000D+00 0.000D+00 0.479D+00 0.436D+00
 Gap=     0.096 Goal=   None    Shift=    0.000
 RMSDP=1.84D-03 MaxDP=2.99D-01 DE=-7.18D-02 OVMax= 4.24D-01

 Cycle   6  Pass 1  IDiag  1:
 RMSU=  1.27D-03    CP:  9.29D-01  1.35D-02  3.23D-01  6.93D-01  6.26D-01
 E= -3591.39181497599     Delta-E=        0.189480461449 Rises=F Damp=F
 DIIS: error= 5.19D-02 at cycle   6 NSaved=   6.
 NSaved= 6 IEnMin= 5 EnMin= -3591.58129543744     IErMin= 4 ErrMin= 2.08D-02
 ErrMax= 5.19D-02  0.00D+00 EMaxC= 1.00D-01 BMatC= 2.01D+00 BMatP= 1.21D+00
 IDIUse=2 WtCom= 0.00D+00 WtEn= 1.00D+00
 EnCoef did     3 forward-backward iterations
 Coeff-En:   0.000D+00 0.000D+00 0.000D+00 0.329D+00 0.330D+00 0.341D+00
 Coeff:      0.000D+00 0.000D+00 0.000D+00 0.329D+00 0.330D+00 0.341D+00
 Gap=     0.277 Goal=   None    Shift=    0.000
 RMSDP=1.50D-03 MaxDP=2.77D-01 DE= 1.89D-01 OVMax= 2.46D-01

 Cycle   7  Pass 1  IDiag  1:
 RMSU=  4.42D-04    CP:  9.18D-01  3.98D-02  4.87D-01  7.54D-01  5.35D-01
                    CP:  1.05D-01
 E= -3592.59043506910     Delta-E=       -1.198620093106 Rises=F Damp=F
 DIIS: error= 1.27D-02 at cycle   7 NSaved=   7.
 NSaved= 7 IEnMin= 7 EnMin= -3592.59043506910     IErMin= 7 ErrMin= 1.27D-02
 ErrMax= 1.27D-02  0.00D+00 EMaxC= 1.00D-01 BMatC= 1.66D-01 BMatP= 1.21D+00
 IDIUse=3 WtCom= 8.73D-01 WtEn= 1.27D-01
 Coeff-Com: -0.386D-01 0.553D-01-0.147D-01 0.125D-01 0.564D-01 0.210D+00
 Coeff-Com:  0.719D+00
 Coeff-En:   0.000D+00 0.000D+00 0.000D+00 0.000D+00 0.000D+00 0.154D+00
 Coeff-En:   0.846D+00
 Coeff:     -0.337D-01 0.483D-01-0.128D-01 0.109D-01 0.492D-01 0.203D+00
 Coeff:      0.735D+00
 Gap=     0.247 Goal=   None    Shift=    0.000
 RMSDP=3.87D-04 MaxDP=4.62D-02 DE=-1.20D+00 OVMax= 5.79D-02

 Cycle   8  Pass 1  IDiag  1:
 RMSU=  2.30D-04    CP:  9.18D-01  2.98D-02  4.61D-01  7.54D-01  6.26D-01
                    CP:  2.60D-01  8.27D-01
 E= -3592.69588020749     Delta-E=       -0.105445138386 Rises=F Damp=F
 DIIS: error= 3.68D-03 at cycle   8 NSaved=   8.
 NSaved= 8 IEnMin= 8 EnMin= -3592.69588020749     IErMin= 8 ErrMin= 3.68D-03
 ErrMax= 3.68D-03  0.00D+00 EMaxC= 1.00D-01 BMatC= 1.06D-02 BMatP= 1.66D-01
 IDIUse=3 WtCom= 9.63D-01 WtEn= 3.68D-02
 Coeff-Com: -0.267D-02 0.125D-01-0.485D-02-0.829D-01-0.947D-01 0.189D-01
 Coeff-Com:  0.309D+00 0.844D+00
 Coeff-En:   0.000D+00 0.000D+00 0.000D+00 0.000D+00 0.000D+00 0.000D+00
 Coeff-En:   0.000D+00 0.100D+01
 Coeff:     -0.257D-02 0.121D-01-0.467D-02-0.799D-01-0.912D-01 0.182D-01
 Coeff:      0.298D+00 0.850D+00
 Gap=     0.241 Goal=   None    Shift=    0.000
 RMSDP=1.55D-04 MaxDP=1.46D-02 DE=-1.05D-01 OVMax= 3.91D-02

 Cycle   9  Pass 1  IDiag  1:
 RMSU=  1.03D-04    CP:  9.17D-01  3.02D-02  4.64D-01  7.59D-01  6.09D-01
                    CP:  2.21D-01  1.04D+00  9.59D-01
 E= -3592.70191647858     Delta-E=       -0.006036271097 Rises=F Damp=F
 DIIS: error= 2.24D-03 at cycle   9 NSaved=   9.
 NSaved= 9 IEnMin= 9 EnMin= -3592.70191647858     IErMin= 9 ErrMin= 2.24D-03
 ErrMax= 2.24D-03  0.00D+00 EMaxC= 1.00D-01 BMatC= 7.69D-03 BMatP= 1.06D-02
 IDIUse=3 WtCom= 9.78D-01 WtEn= 2.24D-02
 Coeff-Com: -0.376D-02 0.103D-01-0.134D-02-0.263D-01-0.410D-01 0.155D-02
 Coeff-Com: -0.431D-01 0.412D+00 0.692D+00
 Coeff-En:   0.000D+00 0.000D+00 0.000D+00 0.000D+00 0.000D+00 0.000D+00
 Coeff-En:   0.000D+00 0.708D-01 0.929D+00
 Coeff:     -0.368D-02 0.101D-01-0.131D-02-0.258D-01-0.400D-01 0.152D-02
 Coeff:     -0.422D-01 0.404D+00 0.697D+00
 Gap=     0.235 Goal=   None    Shift=    0.000
 RMSDP=7.45D-05 MaxDP=7.43D-03 DE=-6.04D-03 OVMax= 1.16D-02

 Cycle  10  Pass 1  IDiag  1:
 RMSU=  5.04D-05    CP:  9.18D-01  2.89D-02  4.59D-01  7.60D-01  6.17D-01
                    CP:  2.39D-01  1.05D+00  1.14D+00  9.78D-01
 E= -3592.70689889962     Delta-E=       -0.004982421038 Rises=F Damp=F
 DIIS: error= 7.89D-04 at cycle  10 NSaved=  10.
 NSaved=10 IEnMin=10 EnMin= -3592.70689889962     IErMin=10 ErrMin= 7.89D-04
 ErrMax= 7.89D-04  0.00D+00 EMaxC= 1.00D-01 BMatC= 9.14D-04 BMatP= 7.69D-03
 IDIUse=3 WtCom= 9.92D-01 WtEn= 7.89D-03
 Coeff-Com: -0.247D-02 0.399D-02-0.214D-03 0.902D-02 0.169D-02-0.898D-03
 Coeff-Com: -0.128D+00 0.745D-02 0.298D+00 0.812D+00
 Coeff-En:   0.000D+00 0.000D+00 0.000D+00 0.000D+00 0.000D+00 0.000D+00
 Coeff-En:   0.000D+00 0.000D+00 0.000D+00 0.100D+01
 Coeff:     -0.245D-02 0.395D-02-0.213D-03 0.895D-02 0.167D-02-0.891D-03
 Coeff:     -0.127D+00 0.739D-02 0.296D+00 0.813D+00
 Gap=     0.232 Goal=   None    Shift=    0.000
 RMSDP=4.06D-05 MaxDP=4.32D-03 DE=-4.98D-03 OVMax= 6.94D-03

 Cycle  11  Pass 1  IDiag  1:
 RMSU=  1.66D-05    CP:  9.18D-01  2.84D-02  4.58D-01  7.63D-01  6.20D-01
                    CP:  2.46D-01  1.05D+00  1.25D+00  1.18D+00  9.91D-01
 E= -3592.70771529482     Delta-E=       -0.000816395195 Rises=F Damp=F
 DIIS: error= 9.14D-05 at cycle  11 NSaved=  11.
 NSaved=11 IEnMin=11 EnMin= -3592.70771529482     IErMin=11 ErrMin= 9.14D-05
 ErrMax= 9.14D-05  0.00D+00 EMaxC= 1.00D-01 BMatC= 2.10D-05 BMatP= 9.14D-04
 IDIUse=1 WtCom= 1.00D+00 WtEn= 0.00D+00
 Coeff-Com:  0.293D-03-0.783D-03 0.630D-04 0.505D-02 0.205D-02-0.130D-02
 Coeff-Com: -0.416D-01-0.257D-01 0.449D-01 0.264D+00 0.753D+00
 Coeff:      0.293D-03-0.783D-03 0.630D-04 0.505D-02 0.205D-02-0.130D-02
 Coeff:     -0.416D-01-0.257D-01 0.449D-01 0.264D+00 0.753D+00
 Gap=     0.232 Goal=   None    Shift=    0.000
 RMSDP=1.18D-05 MaxDP=8.88D-04 DE=-8.16D-04 OVMax= 3.29D-03

 Cycle  12  Pass 1  IDiag  1:
 RMSU=  6.38D-06    CP:  9.18D-01  2.83D-02  4.57D-01  7.64D-01  6.20D-01
                    CP:  2.46D-01  1.05D+00  1.27D+00  1.23D+00  1.10D+00
                    CP:  1.09D+00
 E= -3592.70775852195     Delta-E=       -0.000043227137 Rises=F Damp=F
 DIIS: error= 8.12D-05 at cycle  12 NSaved=  12.
 NSaved=12 IEnMin=12 EnMin= -3592.70775852195     IErMin=12 ErrMin= 8.12D-05
 ErrMax= 8.12D-05  0.00D+00 EMaxC= 1.00D-01 BMatC= 6.59D-06 BMatP= 2.10D-05
 IDIUse=1 WtCom= 1.00D+00 WtEn= 0.00D+00
 Coeff-Com:  0.389D-03-0.652D-03 0.985D-04 0.761D-03 0.562D-03-0.113D-02
 Coeff-Com: -0.740D-03-0.105D-01-0.196D-01 0.501D-02 0.362D+00 0.663D+00
 Coeff:      0.389D-03-0.652D-03 0.985D-04 0.761D-03 0.562D-03-0.113D-02
 Coeff:     -0.740D-03-0.105D-01-0.196D-01 0.501D-02 0.362D+00 0.663D+00
 Gap=     0.232 Goal=   None    Shift=    0.000
 RMSDP=5.33D-06 MaxDP=4.24D-04 DE=-4.32D-05 OVMax= 1.89D-03

 Cycle  13  Pass 1  IDiag  1:
 RMSU=  2.94D-06    CP:  9.17D-01  2.83D-02  4.58D-01  7.64D-01  6.20D-01
                    CP:  2.44D-01  1.05D+00  1.28D+00  1.25D+00  1.13D+00
                    CP:  1.24D+00  9.89D-01
 E= -3592.70777096627     Delta-E=       -0.000012444314 Rises=F Damp=F
 DIIS: error= 4.72D-05 at cycle  13 NSaved=  13.
 NSaved=13 IEnMin=13 EnMin= -3592.70777096627     IErMin=13 ErrMin= 4.72D-05
 ErrMax= 4.72D-05  0.00D+00 EMaxC= 1.00D-01 BMatC= 1.22D-06 BMatP= 6.59D-06
 IDIUse=1 WtCom= 1.00D+00 WtEn= 0.00D+00
 Coeff-Com:  0.188D-03-0.223D-03 0.446D-04-0.420D-03 0.212D-03-0.613D-03
 Coeff-Com:  0.584D-02-0.212D-02-0.170D-01-0.404D-01 0.520D-01 0.315D+00
 Coeff-Com:  0.688D+00
 Coeff:      0.188D-03-0.223D-03 0.446D-04-0.420D-03 0.212D-03-0.613D-03
 Coeff:      0.584D-02-0.212D-02-0.170D-01-0.404D-01 0.520D-01 0.315D+00
 Coeff:      0.688D+00
 Gap=     0.232 Goal=   None    Shift=    0.000
 RMSDP=3.10D-06 MaxDP=2.80D-04 DE=-1.24D-05 OVMax= 1.09D-03

 Cycle  14  Pass 1  IDiag  1:
 RMSU=  1.45D-06    CP:  9.17D-01  2.83D-02  4.58D-01  7.65D-01  6.20D-01
                    CP:  2.44D-01  1.05D+00  1.28D+00  1.26D+00  1.15D+00
                    CP:  1.32D+00  1.16D+00  1.14D+00
 E= -3592.70777427846     Delta-E=       -0.000003312194 Rises=F Damp=F
 DIIS: error= 2.87D-05 at cycle  14 NSaved=  14.
 NSaved=14 IEnMin=14 EnMin= -3592.70777427846     IErMin=14 ErrMin= 2.87D-05
 ErrMax= 2.87D-05  0.00D+00 EMaxC= 1.00D-01 BMatC= 4.27D-07 BMatP= 1.22D-06
 IDIUse=1 WtCom= 1.00D+00 WtEn= 0.00D+00
 Coeff-Com: -0.173D-04 0.556D-04-0.766D-05-0.537D-03 0.841D-04 0.249D-04
 Coeff-Com:  0.360D-02 0.102D-02-0.546D-02-0.293D-01-0.994D-01-0.516D-01
 Coeff-Com:  0.388D+00 0.794D+00
 Coeff:     -0.173D-04 0.556D-04-0.766D-05-0.537D-03 0.841D-04 0.249D-04
 Coeff:      0.360D-02 0.102D-02-0.546D-02-0.293D-01-0.994D-01-0.516D-01
 Coeff:      0.388D+00 0.794D+00
 Gap=     0.232 Goal=   None    Shift=    0.000
 RMSDP=2.62D-06 MaxDP=2.94D-04 DE=-3.31D-06 OVMax= 9.06D-04

 Cycle  15  Pass 1  IDiag  1:
 RMSU=  8.71D-07    CP:  9.17D-01  2.83D-02  4.58D-01  7.65D-01  6.20D-01
                    CP:  2.44D-01  1.05D+00  1.28D+00  1.27D+00  1.17D+00
                    CP:  1.39D+00  1.31D+00  1.47D+00  1.20D+00
 E= -3592.70777558242     Delta-E=       -0.000001303955 Rises=F Damp=F
 DIIS: error= 1.22D-05 at cycle  15 NSaved=  15.
 NSaved=15 IEnMin=15 EnMin= -3592.70777558242     IErMin=15 ErrMin= 1.22D-05
 ErrMax= 1.22D-05  0.00D+00 EMaxC= 1.00D-01 BMatC= 1.70D-07 BMatP= 4.27D-07
 IDIUse=1 WtCom= 1.00D+00 WtEn= 0.00D+00
 Coeff-Com: -0.732D-04 0.938D-04-0.173D-04-0.235D-03-0.463D-06 0.193D-03
 Coeff-Com:  0.956D-03 0.679D-03-0.112D-02-0.103D-01-0.561D-01-0.792D-01
 Coeff-Com:  0.570D-01 0.407D+00 0.681D+00
 Coeff:     -0.732D-04 0.938D-04-0.173D-04-0.235D-03-0.463D-06 0.193D-03
 Coeff:      0.956D-03 0.679D-03-0.112D-02-0.103D-01-0.561D-01-0.792D-01
 Coeff:      0.570D-01 0.407D+00 0.681D+00
 Gap=     0.232 Goal=   None    Shift=    0.000
 RMSDP=1.00D-06 MaxDP=1.53D-04 DE=-1.30D-06 OVMax= 3.44D-04

 Cycle  16  Pass 1  IDiag  1:
 RMSU=  4.44D-07    CP:  9.17D-01  2.83D-02  4.58D-01  7.65D-01  6.21D-01
                    CP:  2.44D-01  1.05D+00  1.28D+00  1.28D+00  1.18D+00
                    CP:  1.41D+00  1.36D+00  1.61D+00  1.46D+00  1.14D+00
 E= -3592.70777587977     Delta-E=       -0.000000297352 Rises=F Damp=F
 DIIS: error= 3.86D-06 at cycle  16 NSaved=  16.
 NSaved=16 IEnMin=16 EnMin= -3592.70777587977     IErMin=16 ErrMin= 3.86D-06
 ErrMax= 3.86D-06  0.00D+00 EMaxC= 1.00D-01 BMatC= 2.84D-08 BMatP= 1.70D-07
 IDIUse=1 WtCom= 1.00D+00 WtEn= 0.00D+00
 Coeff-Com: -0.143D-04 0.622D-05-0.914D-05 0.121D-04-0.887D-04 0.966D-04
 Coeff-Com:  0.137D-05 0.446D-03 0.769D-04 0.842D-03 0.117D-01 0.363D-02
 Coeff-Com: -0.709D-01-0.127D+00 0.149D+00 0.103D+01
 Coeff:     -0.143D-04 0.622D-05-0.914D-05 0.121D-04-0.887D-04 0.966D-04
 Coeff:      0.137D-05 0.446D-03 0.769D-04 0.842D-03 0.117D-01 0.363D-02
 Coeff:     -0.709D-01-0.127D+00 0.149D+00 0.103D+01
 Gap=     0.232 Goal=   None    Shift=    0.000
 RMSDP=6.92D-07 MaxDP=1.34D-04 DE=-2.97D-07 OVMax= 2.71D-04

 Cycle  17  Pass 1  IDiag  1:
 RMSU=  2.63D-07    CP:  9.17D-01  2.83D-02  4.58D-01  7.65D-01  6.21D-01
                    CP:  2.44D-01  1.05D+00  1.28D+00  1.28D+00  1.18D+00
                    CP:  1.42D+00  1.38D+00  1.70D+00  1.65D+00  1.54D+00
                    CP:  1.55D+00
 E= -3592.70777601422     Delta-E=       -0.000000134451 Rises=F Damp=F
 DIIS: error= 1.90D-06 at cycle  17 NSaved=  17.
 NSaved=17 IEnMin=17 EnMin= -3592.70777601422     IErMin=17 ErrMin= 1.90D-06
 ErrMax= 1.90D-06  0.00D+00 EMaxC= 1.00D-01 BMatC= 9.27D-09 BMatP= 2.84D-08
 IDIUse=1 WtCom= 1.00D+00 WtEn= 0.00D+00
 Coeff-Com:  0.260D-05-0.662D-05 0.221D-05 0.460D-04-0.710D-04 0.180D-06
 Coeff-Com: -0.702D-04 0.344D-03 0.435D-03 0.297D-02 0.225D-01 0.313D-01
 Coeff-Com: -0.405D-01-0.196D+00-0.184D+00 0.483D+00 0.880D+00
 Coeff:      0.260D-05-0.662D-05 0.221D-05 0.460D-04-0.710D-04 0.180D-06
 Coeff:     -0.702D-04 0.344D-03 0.435D-03 0.297D-02 0.225D-01 0.313D-01
 Coeff:     -0.405D-01-0.196D+00-0.184D+00 0.483D+00 0.880D+00
 Gap=     0.232 Goal=   None    Shift=    0.000
 RMSDP=4.68D-07 MaxDP=8.38D-05 DE=-1.34D-07 OVMax= 1.79D-04

 Cycle  18  Pass 1  IDiag  1:
 RMSU=  1.54D-07    CP:  9.17D-01  2.83D-02  4.58D-01  7.65D-01  6.21D-01
                    CP:  2.44D-01  1.05D+00  1.28D+00  1.28D+00  1.18D+00
                    CP:  1.42D+00  1.39D+00  1.73D+00  1.76D+00  1.80D+00
                    CP:  2.08D+00  1.34D+00
 E= -3592.70777606485     Delta-E=       -0.000000050633 Rises=F Damp=F
 DIIS: error= 1.55D-06 at cycle  18 NSaved=  18.
 NSaved=18 IEnMin=18 EnMin= -3592.70777606485     IErMin=18 ErrMin= 1.55D-06
 ErrMax= 1.55D-06  0.00D+00 EMaxC= 1.00D-01 BMatC= 3.71D-09 BMatP= 9.27D-09
 IDIUse=1 WtCom= 1.00D+00 WtEn= 0.00D+00
 Coeff-Com:  0.219D-05-0.105D-07 0.292D-05 0.109D-04-0.127D-04-0.181D-04
 Coeff-Com: -0.595D-04 0.107D-03 0.467D-03 0.143D-02 0.302D-02 0.422D-02
 Coeff-Com: -0.394D-02-0.311D-01-0.686D-01-0.491D-01 0.236D+00 0.908D+00
 Coeff:      0.219D-05-0.105D-07 0.292D-05 0.109D-04-0.127D-04-0.181D-04
 Coeff:     -0.595D-04 0.107D-03 0.467D-03 0.143D-02 0.302D-02 0.422D-02
 Coeff:     -0.394D-02-0.311D-01-0.686D-01-0.491D-01 0.236D+00 0.908D+00
 Gap=     0.232 Goal=   None    Shift=    0.000
 RMSDP=2.27D-07 MaxDP=5.03D-05 DE=-5.06D-08 OVMax= 1.02D-04

 Cycle  19  Pass 1  IDiag  1:
 RMSU=  8.18D-08    CP:  9.17D-01  2.83D-02  4.58D-01  7.65D-01  6.21D-01
                    CP:  2.44D-01  1.05D+00  1.28D+00  1.28D+00  1.18D+00
                    CP:  1.42D+00  1.39D+00  1.75D+00  1.80D+00  1.91D+00
                    CP:  2.31D+00  1.72D+00  1.50D+00
 E= -3592.70777608072     Delta-E=       -0.000000015867 Rises=F Damp=F
 DIIS: error= 1.04D-06 at cycle  19 NSaved=  19.
 NSaved=19 IEnMin=19 EnMin= -3592.70777608072     IErMin=19 ErrMin= 1.04D-06
 ErrMax= 1.04D-06  0.00D+00 EMaxC= 1.00D-01 BMatC= 1.19D-09 BMatP= 3.71D-09
 IDIUse=1 WtCom= 1.00D+00 WtEn= 0.00D+00
 Coeff-Com:  0.321D-05-0.134D-05 0.690D-06-0.745D-05 0.208D-04-0.112D-04
 Coeff-Com: -0.543D-04-0.102D-03 0.193D-03-0.130D-03-0.819D-02-0.135D-01
 Coeff-Com:  0.106D-01 0.666D-01 0.520D-01-0.208D+00-0.251D+00 0.403D+00
 Coeff-Com:  0.948D+00
 Coeff:      0.321D-05-0.134D-05 0.690D-06-0.745D-05 0.208D-04-0.112D-04
 Coeff:     -0.543D-04-0.102D-03 0.193D-03-0.130D-03-0.819D-02-0.135D-01
 Coeff:      0.106D-01 0.666D-01 0.520D-01-0.208D+00-0.251D+00 0.403D+00
 Coeff:      0.948D+00
 Gap=     0.232 Goal=   None    Shift=    0.000
 RMSDP=1.87D-07 MaxDP=4.24D-05 DE=-1.59D-08 OVMax= 9.06D-05

 Cycle  20  Pass 1  IDiag  1:
 RMSU=  5.06D-08    CP:  9.17D-01  2.83D-02  4.58D-01  7.65D-01  6.21D-01
                    CP:  2.44D-01  1.05D+00  1.28D+00  1.28D+00  1.18D+00
                    CP:  1.42D+00  1.39D+00  1.76D+00  1.83D+00  1.97D+00
                    CP:  2.48D+00  2.03D+00  2.17D+00  1.58D+00
 E= -3592.70777608923     Delta-E=       -0.000000008513 Rises=F Damp=F
 DIIS: error= 6.22D-07 at cycle  20 NSaved=  20.
 NSaved=20 IEnMin=20 EnMin= -3592.70777608923     IErMin=20 ErrMin= 6.22D-07
 ErrMax= 6.22D-07  0.00D+00 EMaxC= 1.00D-01 BMatC= 4.44D-10 BMatP= 1.19D-09
 IDIUse=1 WtCom= 1.00D+00 WtEn= 0.00D+00
 Coeff-Com:  0.112D-06-0.209D-06-0.996D-06-0.282D-05 0.195D-04 0.238D-05
 Coeff-Com: -0.370D-04-0.156D-03-0.183D-03-0.683D-03-0.438D-02-0.753D-02
 Coeff-Com:  0.633D-02 0.431D-01 0.550D-01-0.593D-01-0.218D+00-0.310D+00
 Coeff-Com:  0.386D+00 0.111D+01
 Coeff:      0.112D-06-0.209D-06-0.996D-06-0.282D-05 0.195D-04 0.238D-05
 Coeff:     -0.370D-04-0.156D-03-0.183D-03-0.683D-03-0.438D-02-0.753D-02
 Coeff:      0.633D-02 0.431D-01 0.550D-01-0.593D-01-0.218D+00-0.310D+00
 Coeff:      0.386D+00 0.111D+01
 Gap=     0.232 Goal=   None    Shift=    0.000
 RMSDP=1.66D-07 MaxDP=3.49D-05 DE=-8.51D-09 OVMax= 8.20D-05

 Cycle  21  Pass 1  IDiag  1:
 Restarting incremental Fock formation.
 E= -3592.70777609404     Delta-E=       -0.000000004811 Rises=F Damp=F
 DIIS: error= 3.60D-07 at cycle  21 NSaved=  20.
 NSaved=20 IEnMin=20 EnMin= -3592.70777609404     IErMin=20 ErrMin= 3.60D-07
 ErrMax= 3.60D-07  0.00D+00 EMaxC= 1.00D-01 BMatC= 1.91D-10 BMatP= 4.44D-10
 IDIUse=1 WtCom= 1.00D+00 WtEn= 0.00D+00
 Coeff-Com: -0.271D-06-0.736D-06 0.229D-05 0.672D-05 0.318D-05-0.313D-05
 Coeff-Com: -0.759D-04-0.189D-03-0.348D-03 0.438D-03 0.104D-02 0.169D-02
 Coeff-Com:  0.229D-02 0.684D-02 0.180D-01-0.259D-01-0.217D+00-0.767D-01
 Coeff-Com:  0.452D+00 0.838D+00
 Coeff:     -0.271D-06-0.736D-06 0.229D-05 0.672D-05 0.318D-05-0.313D-05
 Coeff:     -0.759D-04-0.189D-03-0.348D-03 0.438D-03 0.104D-02 0.169D-02
 Coeff:      0.229D-02 0.684D-02 0.180D-01-0.259D-01-0.217D+00-0.767D-01
 Coeff:      0.452D+00 0.838D+00
 Gap=     0.232 Goal=   None    Shift=    0.000
 RMSDP=6.81D-08 MaxDP=1.70D-05 DE=-4.81D-09 OVMax= 3.26D-05

 Cycle  22  Pass 1  IDiag  1:
 RMSU=  6.81D-08    CP:  1.00D+00
 E= -3592.70777609449     Delta-E=       -0.000000000442 Rises=F Damp=F
 DIIS: error= 3.65D-07 at cycle  22 NSaved=  20.
 NSaved=20 IEnMin=20 EnMin= -3592.70777609449     IErMin=19 ErrMin= 3.60D-07
 ErrMax= 3.65D-07  0.00D+00 EMaxC= 1.00D-01 BMatC= 6.59D-11 BMatP= 1.91D-10
 IDIUse=1 WtCom= 1.00D+00 WtEn= 0.00D+00
 Coeff-Com: -0.862D-06 0.204D-05-0.206D-05 0.196D-05 0.181D-04 0.201D-04
 Coeff-Com: -0.440D-04 0.891D-05 0.162D-02 0.302D-02-0.101D-02-0.126D-01
 Coeff-Com: -0.139D-01 0.301D-01 0.591D-01-0.170D-01-0.193D+00-0.170D+00
 Coeff-Com:  0.548D+00 0.766D+00
 Coeff:     -0.862D-06 0.204D-05-0.206D-05 0.196D-05 0.181D-04 0.201D-04
 Coeff:     -0.440D-04 0.891D-05 0.162D-02 0.302D-02-0.101D-02-0.126D-01
 Coeff:     -0.139D-01 0.301D-01 0.591D-01-0.170D-01-0.193D+00-0.170D+00
 Coeff:      0.548D+00 0.766D+00
 Gap=     0.232 Goal=   None    Shift=    0.000
 RMSDP=4.31D-08 MaxDP=1.05D-05 DE=-4.42D-10 OVMax= 2.04D-05

 Cycle  23  Pass 1  IDiag  1:
 RMSU=  1.72D-08    CP:  1.00D+00  1.58D+00
 E= -3592.70777609479     Delta-E=       -0.000000000307 Rises=F Damp=F
 DIIS: error= 1.45D-07 at cycle  23 NSaved=  20.
 NSaved=20 IEnMin=20 EnMin= -3592.70777609479     IErMin=20 ErrMin= 1.45D-07
 ErrMax= 1.45D-07  0.00D+00 EMaxC= 1.00D-01 BMatC= 1.91D-11 BMatP= 6.59D-11
 IDIUse=1 WtCom= 1.00D+00 WtEn= 0.00D+00
 Coeff-Com:  0.305D-06-0.185D-05 0.362D-06 0.979D-05 0.316D-04 0.333D-04
 Coeff-Com:  0.905D-04 0.535D-03 0.102D-02-0.838D-03-0.576D-02-0.725D-02
 Coeff-Com:  0.711D-02 0.307D-01 0.428D-01-0.720D-01-0.189D+00 0.958D-01
 Coeff-Com:  0.408D+00 0.688D+00
 Coeff:      0.305D-06-0.185D-05 0.362D-06 0.979D-05 0.316D-04 0.333D-04
 Coeff:      0.905D-04 0.535D-03 0.102D-02-0.838D-03-0.576D-02-0.725D-02
 Coeff:      0.711D-02 0.307D-01 0.428D-01-0.720D-01-0.189D+00 0.958D-01
 Coeff:      0.408D+00 0.688D+00
 Gap=     0.232 Goal=   None    Shift=    0.000
 RMSDP=1.38D-08 MaxDP=2.81D-06 DE=-3.07D-10 OVMax= 5.92D-06

 Cycle  24  Pass 1  IDiag  1:
 RMSU=  7.18D-09    CP:  1.00D+00  1.75D+00  1.20D+00
 E= -3592.70777609500     Delta-E=       -0.000000000209 Rises=F Damp=F
 DIIS: error= 3.14D-08 at cycle  24 NSaved=  20.
 NSaved=20 IEnMin=20 EnMin= -3592.70777609500     IErMin=20 ErrMin= 3.14D-08
 ErrMax= 3.14D-08  0.00D+00 EMaxC= 1.00D-01 BMatC= 1.60D-12 BMatP= 1.91D-11
 IDIUse=1 WtCom= 1.00D+00 WtEn= 0.00D+00
 Coeff-Com: -0.644D-07 0.168D-06-0.231D-05 0.448D-05 0.223D-04 0.401D-04
 Coeff-Com: -0.121D-03-0.253D-03-0.256D-03 0.417D-03 0.588D-03-0.366D-02
 Coeff-Com: -0.153D-02 0.169D-01 0.146D-01-0.313D-01-0.699D-01-0.144D-01
 Coeff-Com:  0.235D+00 0.854D+00
 Coeff:     -0.644D-07 0.168D-06-0.231D-05 0.448D-05 0.223D-04 0.401D-04
 Coeff:     -0.121D-03-0.253D-03-0.256D-03 0.417D-03 0.588D-03-0.366D-02
 Coeff:     -0.153D-02 0.169D-01 0.146D-01-0.313D-01-0.699D-01-0.144D-01
 Coeff:      0.235D+00 0.854D+00
 Gap=     0.232 Goal=   None    Shift=    0.000
 RMSDP=5.43D-09 MaxDP=1.15D-06 DE=-2.09D-10 OVMax= 1.91D-06

 Cycle  25  Pass 1  IDiag  1:
 RMSU=  3.38D-09    CP:  1.00D+00  1.80D+00  1.29D+00  1.22D+00
 E= -3592.70777609489     Delta-E=        0.000000000113 Rises=F Damp=F
 DIIS: error= 1.39D-08 at cycle  25 NSaved=  20.
 NSaved=20 IEnMin=19 EnMin= -3592.70777609500     IErMin=20 ErrMin= 1.39D-08
 ErrMax= 1.39D-08  0.00D+00 EMaxC= 1.00D-01 BMatC= 4.19D-13 BMatP= 1.60D-12
 IDIUse=1 WtCom= 1.00D+00 WtEn= 0.00D+00
 Coeff-Com:  0.302D-06-0.251D-05-0.210D-05 0.486D-05 0.581D-05-0.967D-04
 Coeff-Com: -0.214D-03-0.615D-04 0.751D-03 0.122D-02-0.162D-02-0.454D-02
 Coeff-Com: -0.172D-03 0.154D-01 0.116D-01-0.377D-01-0.601D-01-0.880D-02
 Coeff-Com:  0.347D+00 0.737D+00
 Coeff:      0.302D-06-0.251D-05-0.210D-05 0.486D-05 0.581D-05-0.967D-04
 Coeff:     -0.214D-03-0.615D-04 0.751D-03 0.122D-02-0.162D-02-0.454D-02
 Coeff:     -0.172D-03 0.154D-01 0.116D-01-0.377D-01-0.601D-01-0.880D-02
 Coeff:      0.347D+00 0.737D+00
 Gap=     0.232 Goal=   None    Shift=    0.000
 RMSDP=1.99D-09 MaxDP=4.30D-07 DE= 1.13D-10 OVMax= 7.16D-07

 Error on total polarization charges =  0.04579
 SCF Done:  E(RCAM-B3LYP) =  -3592.70777609     A.U. after   25 cycles
            NFock= 25  Conv=0.20D-08     -V/T= 2.0070
 KE= 3.567904998837D+03 PE=-2.486130436155D+04 EE= 9.440084416870D+03
 SMD-CDS (non-electrostatic) energy       (kcal/mol) =      -6.51
 (included in total energy above)
 Leave Link  502 at Wed Dec  6 11:26:44 2023, MaxMem=  2831155200 cpu:           12387.3 elap:            1622.2
 (Enter /opt/software/packages/g16/l801.exe)
 DoSCS=F DFT=T ScalE2(SS,OS)=  1.000000  1.000000
 Range of M.O.s used for correlation:     1   880
 NBasis=   880 NAE=   189 NBE=   189 NFC=     0 NFV=     0
 NROrb=    880 NOA=   189 NOB=   189 NVA=   691 NVB=   691

 **** Warning!!: The largest alpha MO coefficient is  0.10236106D+02

 Leave Link  801 at Wed Dec  6 11:26:44 2023, MaxMem=  2831155200 cpu:               0.0 elap:               0.1
 (Enter /opt/software/packages/g16/l1101.exe)
 Using compressed storage, NAtomX=    79.
 Will process     80 centers per pass.
   1 Symmetry operations used in ECPInt.
 ECPInt:  NShTT=   79401 NPrTT=  302260 LenC2=   65925 LenP2D=  157198.
 LDataN:  DoStor=T MaxTD1= 7 Len=  274
 Number of processors reduced to   5 by ecpmxn.
 R6Disp: Adding Grimme-D3(BJ) dispersion energy 1st derivatives to the gradient.
 Leave Link 1101 at Wed Dec  6 11:26:48 2023, MaxMem=  2831155200 cpu:              16.2 elap:               3.4
 (Enter /opt/software/packages/g16/l1102.exe)
 Symmetrizing basis deriv contribution to polar:
 IMax=3 JMax=2 DiffMx= 0.00D+00
 Leave Link 1102 at Wed Dec  6 11:26:48 2023, MaxMem=  2831155200 cpu:               0.2 elap:               0.1
 (Enter /opt/software/packages/g16/l1110.exe)
 Forming Gx(P) for the SCF density, NAtomX=    79.
 Integral derivatives from FoFJK, PRISM(SPDF).
 Do as many integral derivatives as possible in FoFJK.
 G2DrvN: MDV=    2831146611.
 G2DrvN: will do    80 centers at a time, making    1 passes.
 Calling FoFCou, ICntrl=  3107 FMM=T I1Cent=   0 AccDes= 0.00D+00.
 FoFJK:  IHMeth= 1 ICntrl=    3107 DoSepK=T KAlg= 0 I1Cent=           0 FoldK=F
 IRaf=         1 NMat=       1 IRICut=       1 DoRegI=T DoRafI=F ISym2E= 0 IDoP0=0 IntGTp=1.
 FoFCou: FMM=T IPFlag=           0 FMFlag=      100000 FMFlg1=        2001
         NFxFlg=           0 DoJE=F BraDBF=F KetDBF=F FulRan=T
         wScrn=  0.000000 ICntrl=      3507 IOpCl=  0 I1Cent=           0 NGrid=           0
         NMat0=    1 NMatS0=      1 NMatT0=    0 NMatD0=    1 NMtDS0=    0 NMtDT0=    0
 Symmetry not used in FoFCou.
 FMM levels:  10  Number of levels for PrismC:   9
 NEqPCM:  Using equilibrium solvation (IEInf=0, Eps=  35.6880, EpsInf=   1.8069)
 G2PCM: DoFxE=T DoFxN=T DoGrad=T DoDP/DQ/DG/TGxP=FFFF NFrqRd=   0 IEInf=0 SqF1=F DoCFld=F IF1Alg=4.
 GePol: Maximum number of non-zero 1st derivatives   =     257
 End of G2Drv F.D. properties file   721 does not exist.
 End of G2Drv F.D. properties file   722 does not exist.
 End of G2Drv F.D. properties file   788 does not exist.
 Leave Link 1110 at Wed Dec  6 12:04:04 2023, MaxMem=  2831155200 cpu:           17694.5 elap:            2235.4
 (Enter /opt/software/packages/g16/l1002.exe)
 Minotr:  Closed shell wavefunction.
          IDoAtm=11111111111111111111111111111111111111111111111111
          IDoAtm=11111111111111111111111111111
 NEqPCM:  Using equilibrium solvation (IEInf=0, Eps=  35.6880, EpsInf=   1.8069)
          Direct CPHF calculation.
          Differentiating once with respect to electric field.
                with respect to dipole field.
          Differentiating once with respect to nuclear coordinates.
          Requested convergence is 1.0D-08 RMS, and 1.0D-07 maximum.
          Secondary convergence is 1.0D-12 RMS, and 1.0D-12 maximum.
          NewPWx=T KeepS1=F KeepF1=F KeepIn=T MapXYZ=F SortEE=F KeepMc=T.
        24320 words used for storage of precomputed grid.
 Two-electron integral symmetry not used.
          MDV=    2831155200 using IRadAn=       1.
          Solving linear equations simultaneously, MaxMat=      72.
 FoF2E skips out because all densities are zero.
 CalDSu exits because no D1Ps are significant.
 FoFJK:  IHMeth= 1 ICntrl=       0 DoSepK=T KAlg= 0 I1Cent=           0 FoldK=F
 IRaf=         1 NMat=      72 IRICut=       1 DoRegI=T DoRafI=F ISym2E= 0 IDoP0=3 IntGTp=3.
          There are   240 degrees of freedom in the 1st order CPHF.  IDoFFX=6 NUNeed=     3.
    237 vectors produced by pass  0 Test12= 1.31D-13 1.00D-09 XBig12= 3.85D+02 4.41D+00.
 AX will form    72 AO Fock derivatives at one time.
    237 vectors produced by pass  1 Test12= 1.31D-13 1.00D-09 XBig12= 7.20D+01 2.28D+00.
    237 vectors produced by pass  2 Test12= 1.31D-13 1.00D-09 XBig12= 1.42D+00 1.70D-01.
    237 vectors produced by pass  3 Test12= 1.31D-13 1.00D-09 XBig12= 1.37D-02 8.04D-03.
    237 vectors produced by pass  4 Test12= 1.31D-13 1.00D-09 XBig12= 9.89D-05 8.50D-04.
    237 vectors produced by pass  5 Test12= 1.31D-13 1.00D-09 XBig12= 5.65D-07 5.97D-05.
    211 vectors produced by pass  6 Test12= 1.31D-13 1.00D-09 XBig12= 2.63D-09 2.93D-06.
     72 vectors produced by pass  7 Test12= 1.31D-13 1.00D-09 XBig12= 1.01D-11 1.67D-07.
      3 vectors produced by pass  8 Test12= 1.31D-13 1.00D-09 XBig12= 3.98D-14 1.05D-08.
 InvSVY:  IOpt=1 It=  1 EMax= 3.55D-14
 Solved reduced A of dimension  1708 with   240 vectors.
 FullF1:  Do perturbations      1 to       3.
 Isotropic polarizability for W=    0.000000      705.26 Bohr**3.
 End of Minotr F.D. properties file   721 does not exist.
 End of Minotr F.D. properties file   722 does not exist.
 End of Minotr F.D. properties file   788 does not exist.
 Leave Link 1002 at Wed Dec  6 14:50:41 2023, MaxMem=  2831155200 cpu:           78310.9 elap:            9996.7
 (Enter /opt/software/packages/g16/l601.exe)
 Copying SCF densities to generalized density rwf, IOpCl= 0 IROHF=0.

 **********************************************************************

            Population analysis using the SCF Density.

 **********************************************************************

 Alpha  occ. eigenvalues -- -256.14878 -30.09548 -25.96913 -25.96888 -25.96596
 Alpha  occ. eigenvalues --  -19.24933 -19.24923 -19.24921 -19.24904 -19.24891
 Alpha  occ. eigenvalues --  -19.24876 -14.65288 -14.65257 -14.65257 -14.46365
 Alpha  occ. eigenvalues --  -14.46340 -14.46331 -14.46065 -14.46024 -14.45982
 Alpha  occ. eigenvalues --  -10.34854 -10.34843 -10.34744 -10.33501 -10.33490
 Alpha  occ. eigenvalues --  -10.33428 -10.32982 -10.32975 -10.32956 -10.32912
 Alpha  occ. eigenvalues --  -10.32906 -10.32834 -10.32724 -10.32686 -10.32651
 Alpha  occ. eigenvalues --  -10.30100 -10.30091 -10.30049 -10.29895 -10.29889
 Alpha  occ. eigenvalues --  -10.29844 -10.29774 -10.29676 -10.29511 -10.29413
 Alpha  occ. eigenvalues --  -10.29397 -10.29386 -10.29349 -10.29333 -10.29310
 Alpha  occ. eigenvalues --  -10.29299 -10.29265 -10.29216 -10.28803 -10.28735
 Alpha  occ. eigenvalues --  -10.28731  -3.49788  -2.27288  -2.27165  -2.26497
 Alpha  occ. eigenvalues --   -1.32637  -1.32616  -1.32610  -1.14567  -1.14548
 Alpha  occ. eigenvalues --   -1.14547  -1.08933  -1.08005  -1.07893  -1.05126
 Alpha  occ. eigenvalues --   -1.05067  -1.04934  -0.97463  -0.97457  -0.97424
 Alpha  occ. eigenvalues --   -0.90993  -0.90856  -0.90738  -0.90118  -0.90005
 Alpha  occ. eigenvalues --   -0.89989  -0.88086  -0.88067  -0.88006  -0.84971
 Alpha  occ. eigenvalues --   -0.84893  -0.84678  -0.78845  -0.78435  -0.78363
 Alpha  occ. eigenvalues --   -0.77181  -0.76993  -0.76893  -0.74036  -0.73963
 Alpha  occ. eigenvalues --   -0.73904  -0.71703  -0.71363  -0.71242  -0.69573
 Alpha  occ. eigenvalues --   -0.69368  -0.68532  -0.66271  -0.65886  -0.65805
 Alpha  occ. eigenvalues --   -0.64525  -0.64464  -0.64371  -0.64025  -0.63211
 Alpha  occ. eigenvalues --   -0.63201  -0.63159  -0.62500  -0.62411  -0.60455
 Alpha  occ. eigenvalues --   -0.59942  -0.59914  -0.59346  -0.59145  -0.59090
 Alpha  occ. eigenvalues --   -0.58618  -0.58535  -0.58209  -0.57418  -0.57202
 Alpha  occ. eigenvalues --   -0.57107  -0.56583  -0.56372  -0.56233  -0.55939
 Alpha  occ. eigenvalues --   -0.55778  -0.55204  -0.54129  -0.53761  -0.53666
 Alpha  occ. eigenvalues --   -0.53162  -0.52963  -0.52347  -0.52102  -0.51829
 Alpha  occ. eigenvalues --   -0.51584  -0.51280  -0.50117  -0.49627  -0.48725
 Alpha  occ. eigenvalues --   -0.48108  -0.47859  -0.46906  -0.46547  -0.46435
 Alpha  occ. eigenvalues --   -0.46339  -0.46294  -0.45837  -0.45809  -0.45671
 Alpha  occ. eigenvalues --   -0.45381  -0.44664  -0.44270  -0.43680  -0.43167
 Alpha  occ. eigenvalues --   -0.42513  -0.41803  -0.41569  -0.40415  -0.39930
 Alpha  occ. eigenvalues --   -0.39237  -0.39233  -0.39198  -0.39076  -0.38884
 Alpha  occ. eigenvalues --   -0.38874  -0.38848  -0.38220  -0.37590  -0.37543
 Alpha  occ. eigenvalues --   -0.37501  -0.37177  -0.35729  -0.35218  -0.34934
 Alpha  occ. eigenvalues --   -0.34355  -0.34230  -0.34161  -0.32958  -0.32470
 Alpha  occ. eigenvalues --   -0.31789  -0.29993  -0.29744  -0.29497
 Alpha virt. eigenvalues --   -0.06324  -0.05979  -0.05795  -0.05095  -0.04926
 Alpha virt. eigenvalues --   -0.04830  -0.00935  -0.00396  -0.00256   0.01005
 Alpha virt. eigenvalues --    0.01538   0.01992   0.03835   0.04345   0.04519
 Alpha virt. eigenvalues --    0.05153   0.05423   0.06186   0.06713   0.07713
 Alpha virt. eigenvalues --    0.09430   0.10813   0.11542   0.11606   0.11878
 Alpha virt. eigenvalues --    0.12167   0.12838   0.12996   0.13672   0.14124
 Alpha virt. eigenvalues --    0.15383   0.15557   0.15860   0.16374   0.16812
 Alpha virt. eigenvalues --    0.17371   0.17506   0.17704   0.17890   0.18079
 Alpha virt. eigenvalues --    0.18376   0.18602   0.18711   0.18921   0.19186
 Alpha virt. eigenvalues --    0.19391   0.19717   0.19883   0.20241   0.20521
 Alpha virt. eigenvalues --    0.21043   0.21937   0.22122   0.22857   0.23348
 Alpha virt. eigenvalues --    0.23696   0.24364   0.24744   0.26078   0.26713
 Alpha virt. eigenvalues --    0.27235   0.27660   0.27789   0.27991   0.28838
 Alpha virt. eigenvalues --    0.29187   0.29587   0.30335   0.30495   0.31066
 Alpha virt. eigenvalues --    0.31438   0.31835   0.31946   0.32254   0.32346
 Alpha virt. eigenvalues --    0.32605   0.32786   0.33061   0.33329   0.33560
 Alpha virt. eigenvalues --    0.33953   0.34380   0.34474   0.34572   0.34752
 Alpha virt. eigenvalues --    0.35301   0.35738   0.36043   0.36536   0.36744
 Alpha virt. eigenvalues --    0.37102   0.37206   0.37576   0.38064   0.38927
 Alpha virt. eigenvalues --    0.39183   0.39698   0.40543   0.40996   0.41254
 Alpha virt. eigenvalues --    0.41724   0.42458   0.42675   0.43020   0.43880
 Alpha virt. eigenvalues --    0.44205   0.44370   0.44784   0.44938   0.45469
 Alpha virt. eigenvalues --    0.45631   0.46422   0.46776   0.47198   0.47366
 Alpha virt. eigenvalues --    0.47579   0.47683   0.48180   0.48737   0.48827
 Alpha virt. eigenvalues --    0.49297   0.49720   0.49801   0.49857   0.50145
 Alpha virt. eigenvalues --    0.50218   0.50813   0.51088   0.51315   0.51481
 Alpha virt. eigenvalues --    0.51725   0.51994   0.52053   0.52730   0.52919
 Alpha virt. eigenvalues --    0.53206   0.53797   0.53911   0.54328   0.54571
 Alpha virt. eigenvalues --    0.55226   0.55402   0.55617   0.56175   0.56415
 Alpha virt. eigenvalues --    0.56690   0.57604   0.57741   0.58356   0.58433
 Alpha virt. eigenvalues --    0.58898   0.59816   0.59988   0.60257   0.60459
 Alpha virt. eigenvalues --    0.60655   0.61349   0.61887   0.62045   0.62221
 Alpha virt. eigenvalues --    0.62945   0.63656   0.63765   0.64179   0.64521
 Alpha virt. eigenvalues --    0.65037   0.65085   0.65782   0.66083   0.66255
 Alpha virt. eigenvalues --    0.66836   0.67086   0.67351   0.67688   0.67786
 Alpha virt. eigenvalues --    0.68020   0.68386   0.68734   0.69033   0.69273
 Alpha virt. eigenvalues --    0.69369   0.69580   0.69852   0.70093   0.70463
 Alpha virt. eigenvalues --    0.70639   0.70867   0.70915   0.71219   0.71255
 Alpha virt. eigenvalues --    0.71691   0.72093   0.72432   0.72729   0.72905
 Alpha virt. eigenvalues --    0.73213   0.73685   0.73887   0.74305   0.74764
 Alpha virt. eigenvalues --    0.75006   0.75182   0.75764   0.75832   0.76038
 Alpha virt. eigenvalues --    0.76259   0.76627   0.76927   0.76998   0.77654
 Alpha virt. eigenvalues --    0.77982   0.78035   0.78266   0.78613   0.78906
 Alpha virt. eigenvalues --    0.79356   0.79459   0.80040   0.80406   0.80664
 Alpha virt. eigenvalues --    0.80821   0.81646   0.81961   0.82114   0.82547
 Alpha virt. eigenvalues --    0.82896   0.83082   0.83276   0.83781   0.84067
 Alpha virt. eigenvalues --    0.84267   0.84420   0.85025   0.85388   0.85552
 Alpha virt. eigenvalues --    0.85828   0.86231   0.86509   0.87591   0.88080
 Alpha virt. eigenvalues --    0.88339   0.88934   0.89569   0.90245   0.90607
 Alpha virt. eigenvalues --    0.90682   0.91175   0.92530   0.92987   0.93600
 Alpha virt. eigenvalues --    0.94555   0.95012   0.95822   0.96126   0.96370
 Alpha virt. eigenvalues --    0.97052   0.97188   0.97490   0.98187   0.98711
 Alpha virt. eigenvalues --    0.99048   0.99274   0.99939   1.00512   1.01818
 Alpha virt. eigenvalues --    1.02633   1.03399   1.03975   1.04396   1.04586
 Alpha virt. eigenvalues --    1.05045   1.05301   1.05745   1.06225   1.06413
 Alpha virt. eigenvalues --    1.07392   1.07837   1.07998   1.08759   1.09114
 Alpha virt. eigenvalues --    1.09632   1.10197   1.11058   1.11091   1.11511
 Alpha virt. eigenvalues --    1.12004   1.13253   1.13581   1.13831   1.14488
 Alpha virt. eigenvalues --    1.15461   1.15671   1.17081   1.17496   1.17575
 Alpha virt. eigenvalues --    1.19051   1.20277   1.20341   1.20759   1.21093
 Alpha virt. eigenvalues --    1.22209   1.22495   1.23213   1.23555   1.24124
 Alpha virt. eigenvalues --    1.24576   1.24834   1.25252   1.26080   1.26384
 Alpha virt. eigenvalues --    1.27294   1.27759   1.27954   1.28350   1.28615
 Alpha virt. eigenvalues --    1.29213   1.29337   1.29597   1.29919   1.30406
 Alpha virt. eigenvalues --    1.30533   1.30701   1.30774   1.31106   1.31222
 Alpha virt. eigenvalues --    1.31414   1.31788   1.32346   1.32828   1.32942
 Alpha virt. eigenvalues --    1.33316   1.33846   1.34013   1.34541   1.34733
 Alpha virt. eigenvalues --    1.35265   1.35538   1.36131   1.36621   1.37207
 Alpha virt. eigenvalues --    1.37483   1.37758   1.38805   1.39092   1.40104
 Alpha virt. eigenvalues --    1.40457   1.40742   1.41035   1.41895   1.42351
 Alpha virt. eigenvalues --    1.42609   1.43230   1.44539   1.45678   1.46040
 Alpha virt. eigenvalues --    1.46092   1.46626   1.46865   1.47455   1.47933
 Alpha virt. eigenvalues --    1.48719   1.49215   1.50327   1.51193   1.52533
 Alpha virt. eigenvalues --    1.53366   1.54953   1.55797   1.56734   1.56879
 Alpha virt. eigenvalues --    1.57359   1.58330   1.58453   1.60099   1.60495
 Alpha virt. eigenvalues --    1.61362   1.62287   1.63869   1.63936   1.64954
 Alpha virt. eigenvalues --    1.65702   1.69204   1.69796   1.70807   1.72170
 Alpha virt. eigenvalues --    1.72880   1.73350   1.73878   1.74296   1.74927
 Alpha virt. eigenvalues --    1.75071   1.75332   1.75411   1.75779   1.75914
 Alpha virt. eigenvalues --    1.76431   1.76798   1.77357   1.77379   1.77754
 Alpha virt. eigenvalues --    1.77958   1.78525   1.78893   1.79076   1.79725
 Alpha virt. eigenvalues --    1.79922   1.80344   1.80597   1.80852   1.81455
 Alpha virt. eigenvalues --    1.81749   1.81938   1.82113   1.82692   1.82751
 Alpha virt. eigenvalues --    1.82872   1.83366   1.83571   1.83619   1.83692
 Alpha virt. eigenvalues --    1.83841   1.84068   1.84172   1.84291   1.84880
 Alpha virt. eigenvalues --    1.84960   1.85123   1.85247   1.85696   1.86033
 Alpha virt. eigenvalues --    1.86648   1.87284   1.87950   1.88007   1.88614
 Alpha virt. eigenvalues --    1.89371   1.89647   1.90803   1.91488   1.92484
 Alpha virt. eigenvalues --    1.93125   1.93445   1.93767   1.95037   1.95813
 Alpha virt. eigenvalues --    1.96165   1.96841   1.97303   1.98097   1.99128
 Alpha virt. eigenvalues --    1.99700   2.00051   2.00266   2.00657   2.01010
 Alpha virt. eigenvalues --    2.01412   2.01494   2.01807   2.02462   2.02713
 Alpha virt. eigenvalues --    2.03124   2.03256   2.03921   2.04121   2.04325
 Alpha virt. eigenvalues --    2.04876   2.05365   2.05452   2.06212   2.06829
 Alpha virt. eigenvalues --    2.07398   2.07607   2.08343   2.08603   2.09058
 Alpha virt. eigenvalues --    2.09629   2.10379   2.10638   2.11150   2.11455
 Alpha virt. eigenvalues --    2.11801   2.12119   2.12712   2.13218   2.13381
 Alpha virt. eigenvalues --    2.14215   2.14385   2.14733   2.15242   2.15410
 Alpha virt. eigenvalues --    2.15764   2.17044   2.17130   2.18214   2.18472
 Alpha virt. eigenvalues --    2.19536   2.20333   2.21734   2.21876   2.22216
 Alpha virt. eigenvalues --    2.22967   2.23103   2.23795   2.24269   2.24432
 Alpha virt. eigenvalues --    2.25666   2.26137   2.26390   2.27375   2.27955
 Alpha virt. eigenvalues --    2.28939   2.29965   2.30410   2.31811   2.32551
 Alpha virt. eigenvalues --    2.33038   2.34206   2.34543   2.34664   2.34844
 Alpha virt. eigenvalues --    2.35716   2.35980   2.36218   2.36531   2.36618
 Alpha virt. eigenvalues --    2.36831   2.37451   2.38597   2.39289   2.39412
 Alpha virt. eigenvalues --    2.40044   2.40373   2.40592   2.40647   2.41073
 Alpha virt. eigenvalues --    2.41512   2.41876   2.42055   2.42835   2.43464
 Alpha virt. eigenvalues --    2.44592   2.44784   2.44956   2.45011   2.45458
 Alpha virt. eigenvalues --    2.45824   2.46024   2.46087   2.46662   2.46749
 Alpha virt. eigenvalues --    2.48560   2.49097   2.49613   2.49938   2.52278
 Alpha virt. eigenvalues --    2.53000   2.53850   2.54407   2.55246   2.56192
 Alpha virt. eigenvalues --    2.57943   2.60491   2.61067   2.61956   2.63296
 Alpha virt. eigenvalues --    2.63423   2.64318   2.64598   2.65315   2.65680
 Alpha virt. eigenvalues --    2.65906   2.66653   2.66692   2.66733   2.66999
 Alpha virt. eigenvalues --    2.67403   2.68170   2.68548   2.68647   2.68815
 Alpha virt. eigenvalues --    2.69250   2.69542   2.69925   2.70116   2.71353
 Alpha virt. eigenvalues --    2.71520   2.71712   2.72538   2.73167   2.73880
 Alpha virt. eigenvalues --    2.74419   2.75526   2.75943   2.76851   2.77293
 Alpha virt. eigenvalues --    2.77471   2.77543   2.77915   2.78063   2.78446
 Alpha virt. eigenvalues --    2.78822   2.79236   2.79419   2.79900   2.80212
 Alpha virt. eigenvalues --    2.80639   2.80778   2.82789   2.83035   2.83289
 Alpha virt. eigenvalues --    2.83531   2.83558   2.83811   2.84562   2.85230
 Alpha virt. eigenvalues --    2.86201   2.86884   2.86902   2.87422   2.89026
 Alpha virt. eigenvalues --    2.91133   2.93064   2.93749   2.93942   2.94948
 Alpha virt. eigenvalues --    2.95547   2.97031   2.97163   2.97592   2.98235
 Alpha virt. eigenvalues --    3.00589   3.01565   3.03045   3.05684   3.05963
 Alpha virt. eigenvalues --    3.07597   3.10294   3.11010   3.11376   3.12388
 Alpha virt. eigenvalues --    3.12474   3.12550   3.12753   3.12932   3.13428
 Alpha virt. eigenvalues --    3.13577   3.14867   3.15962   3.16630   3.16892
 Alpha virt. eigenvalues --    3.18060   3.18782   3.19108   3.19971   3.26719
 Alpha virt. eigenvalues --    3.29122   3.30684   3.32732   3.34260   3.35380
 Alpha virt. eigenvalues --    3.36182   3.36209   3.36319   3.40079   3.40245
 Alpha virt. eigenvalues --    3.42162   3.46223   3.46374   3.46791   3.50504
 Alpha virt. eigenvalues --    3.51311   3.51652   3.69247   3.69330   3.70084
 Alpha virt. eigenvalues --    3.72348   3.72463   3.73258   3.84552   3.84710
 Alpha virt. eigenvalues --    3.84789   3.85559   3.85696   3.85878   4.19685
 Alpha virt. eigenvalues --    4.23471   4.23762   4.24132   4.32723   4.34031
 Alpha virt. eigenvalues --    4.37228
          Condensed to atoms (all electrons):
 Mulliken charges:
               1
     1  Fe   0.489800
     2  N   -0.179665
     3  C    0.082028
     4  C    0.097622
     5  C    0.011573
     6  C    0.002414
     7  H    0.074658
     8  C    0.078146
     9  H    0.046870
    10  H    0.051991
    11  H    0.054076
    12  C    0.160639
    13  H    0.074311
    14  N   -0.185514
    15  C    0.074134
    16  C    0.062182
    17  C    0.003685
    18  C   -0.017938
    19  H    0.041896
    20  C    0.166510
    21  H    0.018436
    22  C   -0.015085
    23  H    0.038957
    24  N   -0.174185
    25  C    0.077041
    26  C    0.091510
    27  C    0.019419
    28  C    0.007384
    29  H    0.071245
    30  C    0.076040
    31  H    0.045230
    32  H    0.050737
    33  H    0.054191
    34  C    0.130178
    35  H    0.073094
    36  N   -0.167944
    37  C    0.116807
    38  C    0.024212
    39  C   -0.013491
    40  C   -0.010365
    41  H    0.031241
    42  C    0.175628
    43  H    0.015133
    44  C   -0.014303
    45  H    0.040071
    46  N   -0.170548
    47  C    0.080641
    48  C    0.096425
    49  C    0.011581
    50  C    0.009358
    51  H    0.053863
    52  C    0.075825
    53  H    0.046271
    54  H    0.047171
    55  H    0.053639
    56  C    0.167799
    57  H    0.075451
    58  N   -0.182214
    59  C    0.084428
    60  C   -0.012733
    61  C    0.047859
    62  C    0.169867
    63  H    0.031871
    64  C   -0.014017
    65  H    0.030637
    66  C   -0.010560
    67  H    0.039231
    68  N    0.241593
    69  O   -0.253434
    70  O   -0.249705
    71  N    0.242004
    72  O   -0.249583
    73  O   -0.250565
    74  N    0.240945
    75  O   -0.252710
    76  O   -0.249330
    77  H    0.033099
    78  H    0.031987
    79  H    0.033257
 Sum of Mulliken charges =   2.00000
 Mulliken charges with hydrogens summed into heavy atoms:
               1
     1  Fe   0.489800
     2  N   -0.179665
     3  C    0.082028
     4  C    0.172280
     5  C    0.058443
     6  C    0.054405
     8  C    0.132223
    12  C    0.234950
    14  N   -0.185514
    15  C    0.074134
    16  C    0.104078
    17  C    0.022121
    18  C    0.021019
    20  C    0.166510
    22  C    0.018172
    24  N   -0.174185
    25  C    0.077041
    26  C    0.162755
    27  C    0.064649
    28  C    0.058121
    30  C    0.130230
    34  C    0.203272
    36  N   -0.167944
    37  C    0.116807
    38  C    0.055453
    39  C    0.001642
    40  C    0.029706
    42  C    0.175628
    44  C    0.017684
    46  N   -0.170548
    47  C    0.080641
    48  C    0.150288
    49  C    0.057851
    50  C    0.056529
    52  C    0.129465
    56  C    0.243250
    58  N   -0.182214
    59  C    0.084428
    60  C    0.019138
    61  C    0.078497
    62  C    0.169867
    64  C    0.025213
    66  C    0.022539
    68  N    0.241593
    69  O   -0.253434
    70  O   -0.249705
    71  N    0.242004
    72  O   -0.249583
    73  O   -0.250565
    74  N    0.240945
    75  O   -0.252710
    76  O   -0.249330
 APT charges:
               1
     1  Fe   0.462968
     2  N   -0.203456
     3  C    0.051216
     4  C   -0.015367
     5  C   -0.192062
     6  C   -0.063545
     7  H    0.112128
     8  C    0.131381
     9  H    0.113380
    10  H    0.103521
    11  H    0.096938
    12  C    0.589705
    13  H    0.099474
    14  N   -0.626303
    15  C    0.366953
    16  C   -0.053115
    17  C   -0.097925
    18  C   -0.089212
    19  H    0.113068
    20  C   -0.103976
    21  H    0.168458
    22  C   -0.074313
    23  H    0.085251
    24  N   -0.219598
    25  C    0.061726
    26  C   -0.017128
    27  C   -0.204716
    28  C   -0.060794
    29  H    0.109340
    30  C    0.139655
    31  H    0.115421
    32  H    0.101904
    33  H    0.097921
    34  C    0.576861
    35  H    0.104272
    36  N   -0.577702
    37  C    0.299434
    38  C   -0.023140
    39  C   -0.083050
    40  C   -0.119655
    41  H    0.115379
    42  C   -0.120736
    43  H    0.191854
    44  C   -0.057577
    45  H    0.081432
    46  N   -0.231030
    47  C    0.048718
    48  C   -0.015946
    49  C   -0.188212
    50  C   -0.059244
    51  H    0.117252
    52  C    0.131923
    53  H    0.114037
    54  H    0.108378
    55  H    0.098771
    56  C    0.608575
    57  H    0.099512
    58  N   -0.629799
    59  C    0.337298
    60  C   -0.138184
    61  C    0.008056
    62  C   -0.111115
    63  H    0.164430
    64  C   -0.119312
    65  H    0.119013
    66  C   -0.052399
    67  H    0.083028
    68  N    1.598256
    69  O   -0.860369
    70  O   -0.869094
[...]
 XXXX=         -14202.6481 YYYY=          -7608.5203 ZZZZ=          -8131.3872 XXXY=           -319.9406
 XXXZ=             87.7289 YYYX=           -529.9659 YYYZ=            -20.7190 ZZZX=           -667.6193
 ZZZY=            288.7511 XXYY=          -4390.3056 XXZZ=          -3618.8083 YYZZ=          -3070.9017
 XXYZ=           -155.3593 YYXZ=            -67.1646 ZZXY=            221.9460
 N-N= 8.260607169859D+03 E-N=-2.486130784416D+04  KE= 3.567905102484D+03
 Leave Link  601 at Wed Dec  6 17:30:50 2023, MaxMem=  2831155200 cpu:               0.6 elap:               0.4
 (Enter /opt/software/packages/g16/l9999.exe)
 Electronic transition elements 
                 1             2             3             4             5 
      1  -0.359263D+04 -0.359263D+04 -0.359263D+04 -0.359260D+04 -0.359260D+04
      2  -0.255916D-01 -0.263283D-01 -0.431511D-01  0.859880D-01 -0.676592D-01
      3  -0.634332D-02  0.113394D-01  0.163802D-02  0.125649D+00 -0.240643D+00
      4   0.249080D-01  0.217174D-01  0.132674D-01 -0.126246D+00 -0.584491D-01
      5   0.219415D-02  0.196224D-02  0.226715D-02 -0.901084D-02  0.910418D-02
      6   0.184899D-02 -0.151044D-02  0.541140D-03 -0.146895D-01  0.281941D-01
      7  -0.214717D-02 -0.205944D-02  0.108935D-02  0.146989D-01  0.879261D-02
      8   0.685393D+00 -0.288574D+00  0.199402D+01  0.343430D-01 -0.136840D+00
      9   0.879069D+00 -0.185742D+01 -0.552355D+00  0.270370D+00 -0.797540D-01
     10  -0.178445D+01 -0.104975D+01  0.449848D+00 -0.250067D+00 -0.254642D+00
     11   0.581228D-02 -0.334983D-02 -0.243111D-02  0.495480D-01 -0.534475D-01
     12   0.949996D-03 -0.262183D-01  0.114030D-01 -0.691206D-01  0.178058D+00
     13   0.106149D-01  0.151619D-01 -0.131500D-02  0.226661D-01 -0.859088D-01
     14   0.384673D-02  0.283950D-02 -0.706908D-02 -0.739391D-02  0.175883D-01
     15   0.157675D-01  0.181589D-02  0.728454D-02 -0.433302D-01  0.769384D-01
     16  -0.464485D-02 -0.718578D-02  0.152873D-02  0.380887D-01 -0.215522D-01
                 6             7             8             9            10 
      1  -0.359259D+04 -0.359259D+04 -0.359259D+04 -0.359259D+04 -0.359258D+04
      2   0.171039D-01  0.165444D+00 -0.220464D-01  0.114000D+00  0.138998D+00
      3  -0.420335D-01  0.118038D+00 -0.173050D+00 -0.193888D+00 -0.273244D+00
      4   0.120854D+00 -0.113161D+00 -0.780268D-01  0.468530D-03  0.803193D-01
      5  -0.173673D-02 -0.203955D-01  0.213198D-02 -0.128977D-01 -0.216058D-01
      6   0.497211D-02 -0.138796D-01  0.178285D-01  0.224411D-01  0.335824D-01
      7  -0.142484D-01  0.129606D-01  0.103742D-01 -0.298189D-02 -0.119247D-01
      8  -0.117141D+00 -0.199463D+00 -0.535375D-01 -0.487560D-01 -0.602400D+00
      9  -0.166914D+00 -0.113128D+00 -0.482795D-01  0.174834D+00  0.413729D+00
     10  -0.165390D+00 -0.186665D-01  0.546812D+00  0.587963D-01 -0.605527D-01
     11  -0.871680D-02 -0.223704D-01 -0.118207D+00 -0.110479D-01  0.290276D-01
     12  -0.945837D-01 -0.279955D+00  0.286052D+00  0.202023D+00  0.160424D+00
     13   0.128001D+00  0.826435D-01 -0.131974D+00 -0.106816D+00 -0.622903D-01
     14   0.481105D-01 -0.208049D-01 -0.600925D-01 -0.237854D-01  0.186379D-01
     15  -0.264182D-01 -0.144647D+00 -0.345605D-03  0.556322D-01  0.113702D+00
     16  -0.270909D-01  0.202344D-01 -0.248096D-02  0.213323D-02 -0.386564D-01
                11            12            13            14            15 
      1  -0.359258D+04 -0.359258D+04 -0.359258D+04 -0.359258D+04 -0.359257D+04
      2  -0.108459D+00  0.397164D+00 -0.249337D+00 -0.192201D+00  0.235606D-01
      3   0.191619D+00  0.345888D+00  0.312265D+00 -0.612826D+00 -0.561140D+00
      4   0.243071D+00 -0.657485D+00  0.838569D+00  0.767590D-01  0.131218D+00
      5   0.136223D-01 -0.492603D-01  0.296232D-01  0.281946D-01 -0.122748D-02
      6  -0.229912D-01 -0.432194D-01 -0.407295D-01  0.842360D-01  0.765414D-01
      7  -0.290299D-01  0.835616D-01 -0.110901D+00 -0.807019D-02 -0.171790D-01
      8  -0.209083D+00 -0.343229D-01 -0.152009D+00 -0.337852D-01 -0.223018D+00
      9  -0.182078D+00 -0.279162D-01 -0.308950D+00 -0.229116D+00 -0.230526D+00
     10  -0.274846D+00 -0.117146D-01  0.183414D+00  0.311675D-01  0.885503D-01
     11   0.120041D-01  0.157276D+00 -0.537571D-01 -0.154428D+00 -0.309978D+00
     12  -0.285036D+00 -0.356377D+00 -0.485126D+00  0.750209D+00  0.473807D+00
     13   0.198952D+00  0.316947D-01  0.396011D+00 -0.349741D+00  0.231606D+00
     14  -0.395530D-03 -0.500296D-01  0.431999D-01 -0.347317D-03  0.679314D-01
     15  -0.310676D-01 -0.226540D+00 -0.996149D-01  0.217127D+00 -0.117851D+00
     16   0.151459D-02  0.952991D-01 -0.636942D-01 -0.517911D-01 -0.126372D+00
                16            17            18            19            20 
      1  -0.359256D+04 -0.359256D+04 -0.359256D+04 -0.359255D+04 -0.359254D+04
      2   0.348765D-01 -0.417602D-01 -0.618551D-02  0.731018D+00  0.147051D+01
      3  -0.236544D-01 -0.747326D-01  0.239756D-01 -0.101573D+01  0.112279D+00
      4  -0.349474D-01 -0.274359D-02 -0.369747D-01 -0.108817D+01 -0.876891D+00
      5  -0.521571D-02  0.632224D-02  0.963987D-03 -0.110101D+00 -0.232358D+00
      6   0.322091D-02  0.110192D-01 -0.345789D-02  0.155839D+00 -0.180486D-01
      7   0.532664D-02 -0.169882D-03  0.555584D-02  0.171980D+00  0.144417D+00
      8   0.576561D+00  0.190382D+00 -0.152244D+00 -0.785567D+00  0.764943D-01
      9   0.821271D-01  0.607087D+00 -0.456111D+00 -0.479933D+00  0.166122D+01
     10  -0.211013D+00 -0.990212D-01  0.420396D+00 -0.741614D+00  0.190414D-01
     11  -0.586825D-01 -0.766528D-01 -0.202012D-03 -0.142798D+00  0.157390D+01
     12  -0.171628D-01 -0.667050D-01 -0.135498D-01 -0.582627D+00 -0.363443D+00
     13   0.204274D-01  0.292496D-01  0.631250D-01  0.688907D+00 -0.953017D+00
     14   0.377121D-01 -0.109578D+00 -0.421177D-02  0.366898D+00 -0.308019D-02
     15   0.201258D-01 -0.264865D-01  0.385865D-01 -0.337556D+00  0.414227D+00
     16  -0.295008D-02 -0.121140D-01 -0.276438D-01 -0.195597D+00  0.181067D+00
                21            22            23            24            25 
      1  -0.359254D+04 -0.359254D+04 -0.359254D+04 -0.359254D+04 -0.359254D+04
      2   0.189917D+00  0.919054D+00  0.174544D+00 -0.465881D-01  0.299434D+00
      3   0.695018D+00 -0.734419D+00 -0.425299D+00  0.102406D-01 -0.191038D+00
      4  -0.624542D+00  0.606900D+00  0.113470D-01  0.543305D-02  0.104818D+00
      5  -0.301692D-01 -0.147222D+00 -0.305885D-01  0.631010D-02 -0.498448D-01
      6  -0.115895D+00  0.118428D+00  0.696274D-01  0.408115D-03  0.280673D-01
      7   0.996101D-01 -0.970504D-01  0.247955D-02 -0.553206D-02 -0.197660D-01
      8   0.402997D+00 -0.118761D+01  0.631552D+00  0.219433D+00 -0.110115D+01
      9   0.128320D+00  0.899211D+00 -0.300132D+00 -0.921770D+00  0.108248D+00
     10  -0.106016D+01  0.126449D+01 -0.607509D+00 -0.461008D+00  0.994978D-01
     11   0.158572D+00 -0.182769D+00  0.292060D+00  0.736476D-01 -0.319302D+00
     12  -0.221316D+00  0.154918D+01 -0.485903D-01 -0.587726D-02  0.271259D+00
     13   0.125856D+00 -0.649383D+00  0.150771D+00 -0.213731D-01  0.430723D-01
     14  -0.568249D-02 -0.974298D-01 -0.585570D-01 -0.788910D-02 -0.455422D-01
     15   0.173776D+00 -0.256209D+00 -0.245350D+00  0.444327D-01 -0.188854D+00
     16   0.493623D+00 -0.113853D-02 -0.121508D+00  0.269791D-01 -0.543288D-01
                26            27            28            29            30 
      1  -0.359254D+04 -0.359254D+04 -0.359253D+04 -0.359253D+04 -0.359253D+04
      2   0.901374D+00 -0.425955D+00 -0.171157D+00  0.686980D-01  0.995025D-01
      3  -0.468907D+00  0.521045D+00  0.618443D-01 -0.115471D+00 -0.125101D+00
      4   0.308490D+00  0.106253D+00  0.179159D+00  0.155930D+00  0.944787D-01
      5  -0.149665D+00  0.753461D-01  0.309478D-01 -0.111940D-01 -0.149799D-01
      6   0.788685D-01 -0.878536D-01 -0.134746D-01  0.217914D-01  0.233432D-01
      7  -0.468815D-01 -0.152595D-01 -0.319954D-01 -0.257692D-01 -0.153646D-01
      8  -0.133198D+00  0.643396D+00 -0.461871D-01 -0.145315D+00 -0.810917D-01
      9  -0.340639D+00  0.602385D-01  0.388543D-01  0.191960D+00 -0.122854D+00
     10   0.982455D+00  0.170499D+00  0.101576D+00  0.715942D-01 -0.250653D+00
     11  -0.101246D+01 -0.395804D+00  0.217393D+00 -0.865362D-01  0.938936D-01
     12   0.902159D+00  0.174556D+00 -0.184563D-01  0.622925D-01 -0.103206D+00
     13   0.556109D-02 -0.163220D+00 -0.478416D-01 -0.133549D+00  0.126202D+00
     14  -0.550297D-01  0.114447D+00 -0.441462D-01  0.960749D-01  0.973540D-01
     15  -0.524570D+00  0.335729D+00 -0.782223D-01 -0.446720D-02  0.116663D+00
     16  -0.133527D+00  0.262359D+00  0.166649D+00  0.339050D-01 -0.137490D+00
                31            32            33            34            35 
      1  -0.359253D+04 -0.359253D+04 -0.359253D+04 -0.359252D+04 -0.359252D+04
      2  -0.115203D+00 -0.173474D+00  0.154087D+00 -0.439308D+00  0.205932D+00
      3   0.416821D-01  0.989954D-01 -0.207753D+00  0.460787D-01  0.183738D+00
      4  -0.509456D-01  0.213496D+00  0.223275D+00  0.903199D-01 -0.142355D-01
      5   0.198540D-01  0.288048D-01 -0.302984D-01  0.776566D-01 -0.331262D-01
      6  -0.571627D-02 -0.192729D-01  0.365135D-01 -0.973641D-02 -0.336099D-01
      7   0.102854D-01 -0.366639D-01 -0.402827D-01 -0.140491D-01  0.238963D-02
      8  -0.222400D-01 -0.179664D-01 -0.344785D+00 -0.264975D+00 -0.144239D+00
      9  -0.841962D-01  0.930829D-01  0.107702D+00 -0.698027D-01  0.873122D-01
     10  -0.467028D+00  0.610250D-01  0.312654D+00 -0.145734D-01  0.338622D+00
     11  -0.860118D-01  0.419084D-01 -0.166902D+00 -0.444161D+00  0.297571D+00
     12  -0.925481D-01 -0.655291D-01  0.281831D+00  0.245255D+00  0.148904D+00
     13  -0.333725D-01 -0.930180D-02 -0.236378D+00  0.233607D+00 -0.971344D-01
     14   0.604298D-01  0.431721D-01 -0.483026D-02 -0.354764D+00  0.277538D+00
     15   0.115697D+00  0.457069D-01 -0.238735D+00 -0.119766D+00  0.109886D+00
     16  -0.965116D-01 -0.754048D-01  0.136034D+00  0.295488D-01  0.613040D-01
                36            37            38            39            40 
      1  -0.359252D+04 -0.359252D+04 -0.359252D+04 -0.359252D+04 -0.359252D+04
      2   0.235619D+00  0.471140D-01  0.161053D+00 -0.196427D+00  0.219350D+00
      3  -0.252579D+00 -0.154957D+00  0.273787D+00 -0.222124D+00  0.602149D+00
      4  -0.105646D+00  0.270302D+00  0.376703D+00  0.145706D+00  0.802509D-01
      5  -0.415576D-01 -0.620748D-02 -0.263465D-01  0.379408D-01 -0.388733D-01
      6   0.448226D-01  0.267941D-01 -0.446385D-01  0.370917D-01 -0.108261D+00
      7   0.185354D-01 -0.472201D-01 -0.676564D-01 -0.265829D-01 -0.134012D-01
      8   0.141794D+00 -0.577138D+00 -0.764608D-01  0.201229D-01 -0.223535D+00
      9   0.497147D-01 -0.148776D+00  0.758291D-01 -0.208197D+00  0.444346D+00
     10  -0.499516D+00  0.129005D+00  0.139831D+01  0.132975D+00  0.818083D+00
     11   0.316287D-01 -0.164508D+00  0.669488D+00  0.212523D+00  0.318704D+00
     12  -0.190162D+00  0.129640D+00  0.289755D+00  0.116558D+00  0.222534D+00
     13  -0.161820D+00  0.585121D-01 -0.416647D+00 -0.425782D-01 -0.161737D+00
     14  -0.312496D-01 -0.403367D+00  0.448761D+00 -0.391531D+00  0.642924D+00
     15   0.994841D-01 -0.129295D-01  0.281044D+00 -0.330059D-02  0.332338D+00
     16  -0.132571D+00 -0.356145D-01 -0.107759D+00 -0.193258D+00  0.296193D+00
                41            42            43            44            45 
      1  -0.359252D+04 -0.359252D+04 -0.359252D+04 -0.359252D+04 -0.359252D+04
      2   0.105765D+00 -0.609748D+00 -0.112613D+01  0.498625D+00  0.426266D+00
      3  -0.941381D-03 -0.412619D+00 -0.472178D+00 -0.976965D+00  0.823347D+00
      4   0.226664D-01  0.119857D+00 -0.126419D+00  0.891581D-01 -0.100222D+01
      5  -0.208804D-01  0.113477D+00  0.205359D+00 -0.953979D-01 -0.752411D-01
      6   0.343217D-03  0.730583D-01  0.890890D-01  0.183954D+00 -0.148927D+00
      7  -0.485678D-02 -0.200633D-01  0.241513D-01 -0.154242D-01  0.186999D+00
      8  -0.124982D+00  0.318366D+00  0.630110D+00 -0.719959D+00  0.622500D+00
      9   0.238265D+00 -0.197802D+00 -0.512788D+00  0.105383D+01 -0.115667D+01
     10   0.333312D+00 -0.153929D+01  0.161372D+00 -0.101059D+01 -0.162287D+01
     11   0.284553D-01 -0.100762D+01  0.440968D+00 -0.112556D+01 -0.888889D+00
     12   0.344789D+00 -0.922779D+00 -0.893093D+00 -0.433549D-01 -0.326670D+00
     13  -0.241048D+00  0.557802D+00  0.534004D+00 -0.638787D+00  0.156780D+01
     14   0.849737D-01 -0.122498D+01 -0.181590D+01 -0.983916D-01 -0.533507D-02
     15   0.208142D+00  0.464890D-01 -0.583366D+00 -0.249370D+00  0.797867D+00
     16   0.105562D-01 -0.339073D+00 -0.185565D+00  0.317178D+00 -0.939815D+00
                46            47            48            49            50 
      1  -0.359252D+04 -0.359252D+04 -0.359251D+04 -0.359251D+04 -0.359251D+04
      2   0.321526D+00 -0.327001D+00 -0.120549D+00  0.749253D+00  0.215266D+00
      3  -0.335314D+00  0.157523D+00 -0.301085D+00 -0.453090D+00  0.266805D+00
      4  -0.333926D-01  0.543154D+00  0.267371D+00 -0.377753D+00 -0.513795D+00
      5  -0.525263D-01  0.647231D-01  0.235741D-01 -0.143012D+00 -0.400883D-01
      6   0.617744D-01 -0.348820D-01  0.565398D-01  0.842138D-01 -0.462019D-01
      7  -0.183783D-02 -0.980241D-01 -0.541101D-01  0.685844D-01  0.963009D-01
      8  -0.120200D+00  0.131272D+00 -0.224101D+00 -0.309322D+00  0.820678D-01
      9   0.325831D+00  0.539745D+00 -0.358713D+00  0.123458D+00  0.479235D+00
     10  -0.616964D+00  0.918523D-01  0.853231D+00 -0.157133D+00 -0.481934D+00
     11  -0.600802D+00  0.208920D+00  0.209660D+00 -0.700370D+00  0.231755D+00
     12   0.209825D+00 -0.709197D+00  0.888671D+00  0.789366D+00 -0.838927D+00
     13  -0.117881D+00 -0.413756D+00  0.170062D+00  0.131444D+00 -0.643017D-01
     14  -0.406657D-01  0.349316D+00 -0.264537D+00 -0.764620D+00  0.604997D-01
     15   0.180160D+00 -0.172672D+00 -0.565156D-01  0.571424D+00 -0.191507D+00
     16  -0.591923D-01  0.752235D-01 -0.133466D+00 -0.532542D+00  0.452573D+00
                51            52            53            54            55 
      1  -0.359251D+04 -0.359251D+04 -0.359251D+04 -0.359251D+04 -0.359251D+04
      2  -0.208520D-01 -0.108209D+00 -0.348340D+00 -0.760637D+00 -0.505616D+00
      3  -0.354115D+00 -0.125086D+00  0.381653D+00 -0.168329D+00  0.140348D+00
      4   0.389528D+00 -0.277832D+00  0.262736D-01  0.604701D+00  0.506993D+00
      5  -0.727416D-03  0.189311D-01  0.648917D-01  0.144283D+00  0.941198D-01
      6   0.632109D-01  0.225529D-01 -0.752054D-01  0.322407D-01 -0.230836D-01
      7  -0.715789D-01  0.523158D-01 -0.305261D-02 -0.113814D+00 -0.975295D-01
      8   0.894772D-01 -0.119557D+00  0.223066D+00  0.135496D+00 -0.131632D+00
      9   0.158187D+00 -0.355893D+00 -0.717463D-02 -0.910408D+00 -0.604527D+00
     10   0.142241D+00  0.141882D+00 -0.324478D+00 -0.796019D-01 -0.156847D-01
     11  -0.470508D+00  0.344719D+00  0.343104D+00 -0.142966D+00  0.133396D+00
     12   0.111735D+01 -0.391428D+00 -0.700400D+00  0.861382D-01 -0.343594D+00
     13  -0.767110D+00  0.393299D+00 -0.465364D-02  0.428134D+00  0.522672D+00
     14  -0.105283D+00  0.493208D-01  0.226268D+00  0.501581D-01  0.251362D+00
     15   0.615894D+00 -0.666839D+00 -0.251533D+00 -0.635399D+00 -0.444721D+00
     16  -0.562680D+00  0.276261D+00  0.454418D+00 -0.196600D+00 -0.174457D+00
                56            57            58            59            60 
      1  -0.359251D+04 -0.359251D+04 -0.359250D+04 -0.359250D+04 -0.359250D+04
      2  -0.135343D+00 -0.214511D+00 -0.349223D+00 -0.133277D+00 -0.708600D+00
      3   0.803168D+00  0.300931D+00  0.342304D+00  0.237314D+00 -0.639077D-01
      4   0.806749D-01 -0.102047D+00  0.204057D-01  0.170428D+00  0.332205D+00
      5   0.219413D-01  0.388469D-01  0.719063D-01  0.252889D-01  0.145806D+00
      6  -0.160216D+00 -0.525858D-01 -0.652961D-01 -0.454338D-01  0.128549D-01
      7  -0.188250D-01  0.196323D-01 -0.403906D-02 -0.332935D-01 -0.672615D-01
      8   0.397040D+00  0.550659D+00  0.265602D+00  0.197828D+00 -0.193601D+00
      9   0.136381D+00  0.605150D+00  0.533183D+00 -0.127958D-01  0.368116D+00
     10  -0.343615D+00 -0.551718D+00  0.438742D+00  0.312084D+00 -0.926610D-01
     11   0.305685D-01  0.657865D+00  0.100817D+00 -0.512693D+00  0.952464D+00
     12   0.612556D+00 -0.101621D+01 -0.162104D+00 -0.246318D+00 -0.359849D-01
     13  -0.980111D-01 -0.284870D+00 -0.289136D+00  0.144032D+00 -0.282860D+00
     14   0.189800D+00  0.332539D+00  0.582251D+00  0.397455D+00  0.756236D-01
     15  -0.101051D-01  0.372165D+00  0.496998D+00 -0.615939D-03  0.754351D-01
     16   0.523454D+00  0.131347D+00 -0.939467D-01 -0.123677D+00  0.113844D+00
 Unable to Open any file for archive entry.
 1\1\GINC-X1000C0S1B0N0\SP\RCAM-B3LYP TD-FC\Gen\C36H27Fe1N9O6(2+)\PNG4R
 JV\06-Dec-2023\0\\#p cam-b3lyp chkbasis geom=allcheck Guess=Read int=u
 ltrafine scrf=(SMD,solvent=Acetonitrile) td=(NStates=60) EmpiricalDisp
 ersion=GD3BJ\\Title\\2,1\Fe,-0.193488,1.048975,-0.17907\N,-0.449724,2.
 999986,-0.506815\C,0.473397,3.775336,0.102875\C,-1.367331,3.583564,-1.
 273757\C,0.492129,5.157224,-0.021337\C,-1.416193,4.965257,-1.450806\H,
 -2.088971,2.933837,-1.768824\C,-0.477874,5.765424,-0.814412\H,1.259324
 ,5.735842,0.494612\H,-2.190628,5.394945,-2.087165\H,-0.494618,6.8498,-
 0.9357\C,1.448665,3.033378,0.894179\H,2.235489,3.567831,1.439162\N,1.3
 42141,1.757697,0.912378\C,2.304371,0.990381,1.62387\C,3.657879,1.05233
 2,1.283363\C,1.880992,0.129229,2.631476\C,4.582441,0.233104,1.926142\H
 ,3.985693,1.729409,0.493427\C,2.824483,-0.671357,3.254203\H,0.844218,0
 .088299,2.949797\C,4.172731,-0.64798,2.918715\H,5.633817,0.277674,1.63
 8744\N,-1.344171,0.974854,1.449864\C,-1.538539,-0.279102,1.914787\C,-1
 .945374,1.985803,2.071341\C,-2.362782,-0.559351,2.994727\C,-2.783269,1
 .789099,3.167762\H,-1.769914,2.988201,1.680191\C,-3.003936,0.500213,3.
 631943\H,-2.486743,-1.590918,3.326121\H,-3.255893,2.650886,3.639989\H,
 -3.661144,0.318125,4.483844\C,-0.775419,-1.304793,1.213961\H,-0.858957
 ,-2.352169,1.525055\N,0.006045,-0.916009,0.275883\C,0.754322,-1.868727
 ,-0.459998\C,0.182828,-3.060314,-0.916329\C,2.079006,-1.573488,-0.7674
 48\C,0.937173,-3.952,-1.675291\H,-0.86089,-3.284811,-0.691385\C,2.8017
 05,-2.476826,-1.52671\H,2.54903,-0.661357,-0.417521\C,2.260197,-3.6685
 63,-1.993475\H,0.480023,-4.876101,-2.032272\N,0.824397,0.97054,-1.9136
 8\C,0.090565,0.490384,-2.941251\C,2.086602,1.319507,-2.149153\C,0.6086
 03,0.309627,-4.215843\C,2.683242,1.170475,-3.399457\H,2.659787,1.72101
 8,-1.315468\C,1.938926,0.649728,-4.447751\H,-0.027695,-0.093421,-5.004
 636\H,3.727104,1.457087,-3.529219\H,2.382178,0.513547,-5.435632\C,-1.2
 86819,0.162421,-2.596724\H,-1.946954,-0.287345,-3.347604\N,-1.670859,0
 .410189,-1.400898\C,-2.956256,-0.021863,-0.980393\C,-3.294521,-1.36586
 8,-1.103932\C,-3.845468,0.87208,-0.377846\C,-4.517438,-1.788508,-0.601
 864\H,-2.610896,-2.079039,-1.559678\C,-5.070755,0.421416,0.099009\H,-3
 .577577,1.923785,-0.288468\C,-5.418841,-0.922899,-0.000058\H,-5.761451
 ,1.126317,0.564021\N,-4.849214,-3.215897,-0.698295\O,-4.000189,-3.9678
 84,-1.132743\O,-5.951447,-3.567798,-0.335925\N,4.188691,-2.13302,-1.86
 5115\O,4.836164,-2.940679,-2.496063\O,4.610812,-1.053831,-1.499862\N,2
 .364892,-1.590272,4.304965\O,1.175559,-1.627225,4.5472\O,3.197546,-2.2
 66127,4.870478\H,-6.365661,-1.299092,0.383955\H,2.863301,-4.346816,-2.
 594997\H,4.874914,-1.305884,3.428067\\Version=AS64L-G16RevC.02\State=1
 -A\HF=-3592.7077501\RMSD=9.435e-09\PG=C01 [X(C36H27Fe1N9O6)]\\@
 The archive entry for this job was punched.


 LIFE IS SO UNCERTAIN - EAT DESSERT FIRST.
 Job cpu time:       1 days  1 hours 26 minutes 19.4 seconds.
 Elapsed time:       0 days  2 hours 10 minutes 40.2 seconds.
 File lengths (MBytes):  RWF=  22507 Int=      0 D2E=      0 Chk=   1617 Scr=      1
 Normal termination of Gaussian 16 at Wed Dec  6 17:30:51 2023.
