
                                 *****************
                                 * O   R   C   A *
                                 *****************

                                            #,                                       
                                            ###                                      
                                            ####                                     
                                            #####                                    
                                            ######                                   
                                           ########,                                 
                                     ,,################,,,,,                         
                               ,,#################################,,                 
                          ,,##########################################,,             
                       ,#########################################, ''#####,          
                    ,#############################################,,   '####,        
                  ,##################################################,,,,####,       
                ,###########''''           ''''###############################       
              ,#####''   ,,,,##########,,,,          '''####'''          '####       
            ,##' ,,,,###########################,,,                        '##       
           ' ,,###''''                  '''############,,,                           
         ,,##''                                '''############,,,,        ,,,,,,###''
      ,#''                                            '''#######################'''  
     '                                                          ''''####''''         
             ,#######,   #######,   ,#######,      ##                                
            ,#'     '#,  ##    ##  ,#'     '#,    #''#        ######   ,####,        
            ##       ##  ##   ,#'  ##            #'  '#       #        #'  '#        
            ##       ##  #######   ##           ,######,      #####,   #    #        
            '#,     ,#'  ##    ##  '#,     ,#' ,#      #,         ##   #,  ,#        
             '#######'   ##     ##  '#######'  #'      '#     #####' # '####'        



                  #######################################################
                  #                        -***-                        #
                  #          Department of theory and spectroscopy      #
                  #    Directorship and core code : Frank Neese         #
                  #        Max Planck Institute fuer Kohlenforschung    #
                  #                Kaiser Wilhelm Platz 1               #
                  #                 D-45470 Muelheim/Ruhr               #
                  #                      Germany                        #
                  #                                                     #
                  #                  All rights reserved                #
                  #                        -***-                        #
                  #######################################################


                         Program Version 5.0.4 -  RELEASE  -


 With contributions from (in alphabetic order):
   Daniel Aravena         : Magnetic Suceptibility
   Michael Atanasov       : Ab Initio Ligand Field Theory (pilot matlab implementation)
   Alexander A. Auer      : GIAO ZORA, VPT2 properties, NMR spectrum
   Ute Becker             : Parallelization
   Giovanni Bistoni       : ED, misc. LED, open-shell LED, HFLD
   Martin Brehm           : Molecular dynamics
   Dmytro Bykov           : SCF Hessian
   Vijay G. Chilkuri      : MRCI spin determinant printing, contributions to CSF-ICE
   Dipayan Datta          : RHF DLPNO-CCSD density
   Achintya Kumar Dutta   : EOM-CC, STEOM-CC
   Dmitry Ganyushin       : Spin-Orbit,Spin-Spin,Magnetic field MRCI
   Miquel Garcia          : C-PCM and meta-GGA Hessian, CC/C-PCM, Gaussian charge scheme
   Yang Guo               : DLPNO-NEVPT2, F12-NEVPT2, CIM, IAO-localization
   Andreas Hansen         : Spin unrestricted coupled pair/coupled cluster methods
   Benjamin Helmich-Paris : MC-RPA, TRAH-SCF, COSX integrals
   Lee Huntington         : MR-EOM, pCC
   Robert Izsak           : Overlap fitted RIJCOSX, COSX-SCS-MP3, EOM
   Marcus Kettner         : VPT2
   Christian Kollmar      : KDIIS, OOCD, Brueckner-CCSD(T), CCSD density, CASPT2, CASPT2-K
   Simone Kossmann        : Meta GGA functionals, TD-DFT gradient, OOMP2, MP2 Hessian
   Martin Krupicka        : Initial AUTO-CI
   Lucas Lang             : DCDCAS
   Marvin Lechner         : AUTO-CI (C++ implementation), FIC-MRCC
   Dagmar Lenk            : GEPOL surface, SMD
   Dimitrios Liakos       : Extrapolation schemes; Compound Job, initial MDCI parallelization
   Dimitrios Manganas     : Further ROCIS development; embedding schemes
   Dimitrios Pantazis     : SARC Basis sets
   Anastasios Papadopoulos: AUTO-CI, single reference methods and gradients
   Taras Petrenko         : DFT Hessian,TD-DFT gradient, ASA, ECA, R-Raman, ABS, FL, XAS/XES, NRVS
   Peter Pinski           : DLPNO-MP2, DLPNO-MP2 Gradient
   Christoph Reimann      : Effective Core Potentials
   Marius Retegan         : Local ZFS, SOC
   Christoph Riplinger    : Optimizer, TS searches, QM/MM, DLPNO-CCSD(T), (RO)-DLPNO pert. Triples
   Tobias Risthaus        : Range-separated hybrids, TD-DFT gradient, RPA, STAB
   Michael Roemelt        : Original ROCIS implementation
   Masaaki Saitow         : Open-shell DLPNO-CCSD energy and density
   Barbara Sandhoefer     : DKH picture change effects
   Avijit Sen             : IP-ROCIS
   Kantharuban Sivalingam : CASSCF convergence, NEVPT2, FIC-MRCI
   Bernardo de Souza      : ESD, SOC TD-DFT
   Georgi Stoychev        : AutoAux, RI-MP2 NMR, DLPNO-MP2 response
   Willem Van den Heuvel  : Paramagnetic NMR
   Boris Wezisla          : Elementary symmetry handling
   Frank Wennmohs         : Technical directorship


 We gratefully acknowledge several colleagues who have allowed us to
 interface, adapt or use parts of their codes:
   Stefan Grimme, W. Hujo, H. Kruse, P. Pracht,  : VdW corrections, initial TS optimization,
                  C. Bannwarth, S. Ehlert          DFT functionals, gCP, sTDA/sTD-DF
   Ed Valeev, F. Pavosevic, A. Kumar             : LibInt (2-el integral package), F12 methods
   Garnet Chan, S. Sharma, J. Yang, R. Olivares  : DMRG
   Ulf Ekstrom                                   : XCFun DFT Library
   Mihaly Kallay                                 : mrcc  (arbitrary order and MRCC methods)
   Jiri Pittner, Ondrej Demel                    : Mk-CCSD
   Frank Weinhold                                : gennbo (NPA and NBO analysis)
   Christopher J. Cramer and Donald G. Truhlar   : smd solvation model
   Lars Goerigk                                  : TD-DFT with DH, B97 family of functionals
   V. Asgeirsson, H. Jonsson                     : NEB implementation
   FAccTs GmbH                                   : IRC, NEB, NEB-TS, DLPNO-Multilevel, CI-OPT
                                                   MM, QMMM, 2- and 3-layer-ONIOM, Crystal-QMMM,
                                                   LR-CPCM, SF, NACMEs, symmetry and pop. for TD-DFT,
                                                   nearIR, NL-DFT gradient (VV10), updates on ESD,
                                                   ML-optimized integration grids
   S Lehtola, MJT Oliveira, MAL Marques          : LibXC Library
   Liviu Ungur et al                             : ANISO software


 Your calculation uses the libint2 library for the computation of 2-el integrals
 For citations please refer to: http://libint.valeyev.net

 Your ORCA version has been built with support for libXC version: 5.1.0
 For citations please refer to: https://tddft.org/programs/libxc/

 This ORCA versions uses:
   CBLAS   interface :  Fast vector & matrix operations
   LAPACKE interface :  Fast linear algebra routines
   SCALAPACK package :  Parallel linear algebra routines
   Shared memory     :  Shared parallel matrices
   BLAS/LAPACK       :  OpenBLAS 0.3.15  USE64BITINT DYNAMIC_ARCH NO_AFFINITY Zen SINGLE_THREADED
        Core in use  :  Zen
   Copyright (c) 2011-2014, The OpenBLAS Project


Your calculation utilizes the SMD solvation module
Please cite in your paper:
A.V. Marenich, C.J. Cramer, D.G. Truhlar J. Phys. Chem. B, 113, (2009), 6378 

================================================================================

----- Orbital basis set information -----
Your calculation utilizes the basis: def2-SVP
   F. Weigend and R. Ahlrichs, Phys. Chem. Chem. Phys. 7, 3297 (2005).

----- AuxJ basis set information -----
Your calculation utilizes the auxiliary basis: def2/J
   F. Weigend, Phys. Chem. Chem. Phys. 8, 1057 (2006).

----- AuxC basis set information -----
Your calculation utilizes the auxiliary basis: def2-SVP/C
  H-La, Hf-Rn : A. Hellweg, C. Hattig, S. Hofener and W. Klopper, Theor. Chem. Acc. 117, 587 (2007).
        Ce-Lu : J. Chmela and M. E. Harding, Mol. Phys. (2018).

================================================================================
                                        WARNINGS
                       Please study these warnings very carefully!
================================================================================

INFO   : Checking CIS options ...
  ===> : (D) CORRECTION FOUND - SETTING MODE=3
  ===> : JK MODE FOUND - ACTIVATING RI-MP2 CODE
  ===> : MP2 AND CIS FOUND - CHECKING
WARNING: CIS(D) and MP2 runs must have the same orbital window
  ===> : adjusting orbital windows

WARNING: No MP2 level density has been requested!
         To caclulate MP2 level properties use
         %mp2 Density relaxed end
         or
         %mp2 Density unrelaxed end
         Otherwise for double-hybrid DFT only the energy is correct!

WARNING: The frozen-core approximation is turned on by default for 
         the MP2 part of double-hybrid DFT.

WARNING:  You are using a Range-Separated Double Hybrid functional with Doubles Correction 
          Changing Mode to RPA_AOINTS 


WARNING: CIS/ROCIS methods need fully converged wavefunctions
  ===> : Setting SCFConvForced true
         You can overwrite this default with %scf ConvForced false 


INFO   : the flag for use of the SHARK integral package has been found!

================================================================================
                                       INPUT FILE
================================================================================
NAME = FeC_4_SOS-wPBEPP86_def2SVP.inp
|  1> %maxcore 8000
|  2> %pal
|  3>  nprocs 8
|  4> end
|  5> ! RI-SOS-wPBEPP86 def2-SVP def2/J def2-SVP/C RIJCOSX CPCM TIGHTSCF
|  6> 
|  7> %TDDFT 
|  8>     DCORR     1
|  9>     NROOTS    40
| 10>     doscs     TRUE
| 11>     TDA       FALSE
| 12> END
| 13> 
| 14> %CPCM
| 15>     SMD		TRUE
| 16>     SMDsolvent	"Acetonitrile"
| 17> END
| 18> 
| 19> * xyz 2 1
| 20> Fe                 -0.18777100    1.05758600   -0.13113800
| 21> N                  -0.48003200    3.00136200   -0.43003700
| 22> C                   0.43006300    3.80157600    0.19242800
| 23> C                  -1.41109800    3.57495200   -1.20022000
| 24> C                   0.40284300    5.19109000    0.07714900
| 25> C                  -1.49755800    4.95702500   -1.35957400
| 26> H                  -2.10821100    2.91105600   -1.71492700
| 27> C                  -0.58276300    5.78006200   -0.70840700
| 28> H                   1.15441400    5.78452500    0.59952000
| 29> H                  -2.28088600    5.37087700   -1.99527600
| 30> H                  -0.63126900    6.86452000   -0.81763900
| 31> C                   1.40525100    3.07821200    0.97040200
| 32> H                   2.18337600    3.60816500    1.53236900
| 33> N                   1.30718700    1.78536900    0.97266300
| 34> C                   2.25689000    1.00824200    1.67578700
| 35> C                   3.63106500    1.14870600    1.43566000
| 36> C                   1.80578500    0.04188200    2.57518300
| 37> C                   4.54302900    0.30736000    2.07165000
| 38> H                   3.98000800    1.89937800    0.72246200
| 39> C                   2.73698000   -0.78196000    3.19233000
| 40> H                   0.75150700   -0.05245100    2.82253400
| 41> C                   4.10587100   -0.67499400    2.95432200
| 42> H                   5.60865400    0.41183500    1.86107900
| 43> N                  -1.34976400    0.90657100    1.47524300
| 44> C                  -1.58703800   -0.37689700    1.86954100
| 45> C                  -1.94169300    1.89972700    2.14724000
| 46> C                  -2.44980600   -0.68649800    2.92028800
| 47> C                  -2.81000500    1.66323000    3.21208700
| 48> H                  -1.72930200    2.91900400    1.81694300
| 49> C                  -3.07891200    0.35292800    3.59898700
| 50> H                  -2.60503000   -1.73165600    3.19271300
| 51> H                  -3.26862100    2.51056200    3.72259000
| 52> H                  -3.76115800    0.14393300    4.42436300
| 53> C                  -0.82124100   -1.36345200    1.14765600
| 54> H                  -0.91931900   -2.42887100    1.39044100
| 55> N                   0.02076700   -0.91862700    0.26603100
| 56> C                   0.79447900   -1.81849000   -0.49573500
| 57> C                   0.25444000   -3.00403700   -1.01840100
| 58> C                   2.12095400   -1.48137200   -0.77465000
| 59> C                   1.03698300   -3.83680900   -1.81665400
| 60> H                  -0.78724400   -3.26363900   -0.81464900
| 61> C                   2.87601400   -2.33120500   -1.56977000
| 62> H                   2.56605200   -0.57422700   -0.37118700
| 63> C                   2.35832000   -3.50874600   -2.10612900
| 64> H                   0.60393900   -4.75017500   -2.22749700
| 65> N                   0.84373900    1.01113700   -1.85494900
| 66> C                   0.14776900    0.47912400   -2.89753200
| 67> C                   2.10060400    1.41040500   -2.07606600
| 68> C                   0.71191200    0.29605200   -4.15990500
| 69> C                   2.72796000    1.26479400   -3.31279300
| 70> H                   2.64156700    1.85016300   -1.23606200
| 71> C                   2.03065700    0.68774600   -4.36962100
| 72> H                   0.10903600   -0.14752400   -4.95347600
| 73> H                   3.76051500    1.59645500   -3.42612900
| 74> H                   2.50282700    0.55250300   -5.34390900
| 75> C                  -1.21317600    0.12568600   -2.57973100
| 76> H                  -1.85670100   -0.34460400   -3.33318500
| 77> N                  -1.63270500    0.40012600   -1.38525100
| 78> C                  -2.91320400   -0.03859900   -0.97988000
| 79> C                  -3.27216100   -1.37601400   -1.16167400
| 80> C                  -3.79145500    0.83980700   -0.32800900
| 81> C                  -4.50197900   -1.80649400   -0.67403900
| 82> H                  -2.59726700   -2.07751000   -1.65300700
| 83> C                  -5.02402800    0.38409700    0.12931000
| 84> H                  -3.50448100    1.88375800   -0.19111300
| 85> C                  -5.39125500   -0.95063900   -0.03128000
| 86> H                  -5.70443200    1.07670400    0.62768000
| 87> N                  -4.85584700   -3.22389200   -0.83111400
| 88> O                  -4.01054900   -3.97268800   -1.29780500
| 89> O                  -5.97216900   -3.57307900   -0.48319000
| 90> N                   4.26145300   -1.94564600   -1.87187500
| 91> O                   4.92465400   -2.70379100   -2.56052900
| 92> O                   4.66903800   -0.88475400   -1.42093700
| 93> N                   2.24269400   -1.81744600    4.10960400
| 94> O                   1.03329700   -1.98189400    4.18342200
| 95> O                   3.06698800   -2.46086800    4.73819700
| 96> H                  -6.34319700   -1.33028000    0.33839700
| 97> H                   2.98039300   -4.14247700   -2.73739900
| 98> H                   4.80140000   -1.35235500    3.44878600
| 99> *
|100> 
|101>                          ****END OF INPUT****
================================================================================

                       ****************************
                       * Single Point Calculation *
                       ****************************

---------------------------------
CARTESIAN COORDINATES (ANGSTROEM)
---------------------------------
  Fe    -0.187771    1.057586   -0.131138
  N     -0.480032    3.001362   -0.430037
  C      0.430063    3.801576    0.192428
  C     -1.411098    3.574952   -1.200220
  C      0.402843    5.191090    0.077149
  C     -1.497558    4.957025   -1.359574
  H     -2.108211    2.911056   -1.714927
  C     -0.582763    5.780062   -0.708407
  H      1.154414    5.784525    0.599520
  H     -2.280886    5.370877   -1.995276
  H     -0.631269    6.864520   -0.817639
  C      1.405251    3.078212    0.970402
  H      2.183376    3.608165    1.532369
  N      1.307187    1.785369    0.972663
  C      2.256890    1.008242    1.675787
  C      3.631065    1.148706    1.435660
  C      1.805785    0.041882    2.575183
  C      4.543029    0.307360    2.071650
  H      3.980008    1.899378    0.722462
  C      2.736980   -0.781960    3.192330
  H      0.751507   -0.052451    2.822534
  C      4.105871   -0.674994    2.954322
  H      5.608654    0.411835    1.861079
  N     -1.349764    0.906571    1.475243
  C     -1.587038   -0.376897    1.869541
  C     -1.941693    1.899727    2.147240
  C     -2.449806   -0.686498    2.920288
  C     -2.810005    1.663230    3.212087
  H     -1.729302    2.919004    1.816943
  C     -3.078912    0.352928    3.598987
  H     -2.605030   -1.731656    3.192713
  H     -3.268621    2.510562    3.722590
  H     -3.761158    0.143933    4.424363
  C     -0.821241   -1.363452    1.147656
  H     -0.919319   -2.428871    1.390441
  N      0.020767   -0.918627    0.266031
  C      0.794479   -1.818490   -0.495735
  C      0.254440   -3.004037   -1.018401
  C      2.120954   -1.481372   -0.774650
  C      1.036983   -3.836809   -1.816654
  H     -0.787244   -3.263639   -0.814649
  C      2.876014   -2.331205   -1.569770
  H      2.566052   -0.574227   -0.371187
  C      2.358320   -3.508746   -2.106129
  H      0.603939   -4.750175   -2.227497
  N      0.843739    1.011137   -1.854949
  C      0.147769    0.479124   -2.897532
  C      2.100604    1.410405   -2.076066
  C      0.711912    0.296052   -4.159905
  C      2.727960    1.264794   -3.312793
  H      2.641567    1.850163   -1.236062
  C      2.030657    0.687746   -4.369621
  H      0.109036   -0.147524   -4.953476
  H      3.760515    1.596455   -3.426129
  H      2.502827    0.552503   -5.343909
  C     -1.213176    0.125686   -2.579731
  H     -1.856701   -0.344604   -3.333185
  N     -1.632705    0.400126   -1.385251
  C     -2.913204   -0.038599   -0.979880
  C     -3.272161   -1.376014   -1.161674
  C     -3.791455    0.839807   -0.328009
  C     -4.501979   -1.806494   -0.674039
  H     -2.597267   -2.077510   -1.653007
  C     -5.024028    0.384097    0.129310
  H     -3.504481    1.883758   -0.191113
  C     -5.391255   -0.950639   -0.031280
  H     -5.704432    1.076704    0.627680
  N     -4.855847   -3.223892   -0.831114
  O     -4.010549   -3.972688   -1.297805
  O     -5.972169   -3.573079   -0.483190
  N      4.261453   -1.945646   -1.871875
  O      4.924654   -2.703791   -2.560529
  O      4.669038   -0.884754   -1.420937
  N      2.242694   -1.817446    4.109604
  O      1.033297   -1.981894    4.183422
  O      3.066988   -2.460868    4.738197
  H     -6.343197   -1.330280    0.338397
  H      2.980393   -4.142477   -2.737399
  H      4.801400   -1.352355    3.448786

----------------------------
CARTESIAN COORDINATES (A.U.)
----------------------------
  NO LB      ZA    FRAG     MASS         X           Y           Z
   0 Fe   26.0000    0    55.850   -0.354836    1.998548   -0.247815
   1 N     7.0000    0    14.007   -0.907129    5.671752   -0.812652
   2 C     6.0000    0    12.011    0.812701    7.183938    0.363636
   3 C     6.0000    0    12.011   -2.666589    6.755680   -2.268087
   4 C     6.0000    0    12.011    0.761263    9.809738    0.145790
   5 C     6.0000    0    12.011   -2.829974    9.367420   -2.569223
   6 H     1.0000    0     1.008   -3.983941    5.501099   -3.240742
   7 C     6.0000    0    12.011   -1.101262   10.922734   -1.338695
   8 H     1.0000    0     1.008    2.181526   10.931168    1.132929
   9 H     1.0000    0     1.008   -4.310250   10.149487   -3.770525
  10 H     1.0000    0     1.008   -1.192926   12.972063   -1.545114
  11 C     6.0000    0    12.011    2.655540    5.816978    1.833794
  12 H     1.0000    0     1.008    4.125983    6.818444    2.895758
  13 N     7.0000    0    14.007    2.470225    3.373858    1.838067
  14 C     6.0000    0    12.011    4.264904    1.905301    3.166778
  15 C     6.0000    0    12.011    6.861718    2.170740    2.713004
  16 C     6.0000    0    12.011    3.412439    0.079146    4.866391
  17 C     6.0000    0    12.011    8.585081    0.580826    3.914851
  18 H     1.0000    0     1.008    7.521125    3.589304    1.365255
  19 C     6.0000    0    12.011    5.172143   -1.477690    6.032629
  20 H     1.0000    0     1.008    1.420142   -0.099118    5.333816
  21 C     6.0000    0    12.011    7.758972   -1.275554    5.582859
  22 H     1.0000    0     1.008   10.598820    0.778255    3.516930
  23 N     7.0000    0    14.007   -2.550684    1.713171    2.787805
  24 C     6.0000    0    12.011   -2.999067   -0.712232    3.532920
  25 C     6.0000    0    12.011   -3.669268    3.589964    4.057696
  26 C     6.0000    0    12.011   -4.629462   -1.297293    5.518545
  27 C     6.0000    0    12.011   -5.310140    3.143049    6.069965
  28 H     1.0000    0     1.008   -3.267907    5.516118    3.433525
  29 C     6.0000    0    12.011   -5.818300    0.666937    6.801100
  30 H     1.0000    0     1.008   -4.922793   -3.272356    6.033353
  31 H     1.0000    0     1.008   -6.176799    4.744275    7.034676
  32 H     1.0000    0     1.008   -7.107559    0.271994    8.360834
  33 C     6.0000    0    12.011   -1.551921   -2.576551    2.168756
  34 H     1.0000    0     1.008   -1.737261   -4.589901    2.627553
  35 N     7.0000    0    14.007    0.039244   -1.735953    0.502726
  36 C     6.0000    0    12.011    1.501348   -3.436448   -0.936803
  37 C     6.0000    0    12.011    0.480822   -5.676807   -1.924499
  38 C     6.0000    0    12.011    4.008022   -2.799387   -1.463876
  39 C     6.0000    0    12.011    1.959614   -7.250518   -3.432979
  40 H     1.0000    0     1.008   -1.487676   -6.167384   -1.539464
  41 C     6.0000    0    12.011    5.434879   -4.405339   -2.966435
  42 H     1.0000    0     1.008    4.849136   -1.085132   -0.701442
  43 C     6.0000    0    12.011    4.456579   -6.630569   -3.980007
  44 H     1.0000    0     1.008    1.141279   -8.976530   -4.209359
  45 N     7.0000    0    14.007    1.594436    1.910772   -3.505346
  46 C     6.0000    0    12.011    0.279243    0.905413   -5.475542
  47 C     6.0000    0    12.011    3.969566    2.665279   -3.923196
  48 C     6.0000    0    12.011    1.345319    0.559457   -7.861081
  49 C     6.0000    0    12.011    5.155097    2.390114   -6.260272
  50 H     1.0000    0     1.008    4.991838    3.496301   -2.335819
  51 C     6.0000    0    12.011    3.837386    1.299652   -8.257387
  52 H     1.0000    0     1.008    0.206048   -0.278780   -9.360713
  53 H     1.0000    0     1.008    7.106343    3.016863   -6.474446
  54 H     1.0000    0     1.008    4.729658    1.044079  -10.098524
  55 C     6.0000    0    12.011   -2.292570    0.237512   -4.874985
  56 H     1.0000    0     1.008   -3.508656   -0.651207   -6.298807
  57 N     7.0000    0    14.007   -3.085365    0.756129   -2.617745
  58 C     6.0000    0    12.011   -5.505158   -0.072942   -1.851705
  59 C     6.0000    0    12.011   -6.183488   -2.600290   -2.195246
  60 C     6.0000    0    12.011   -7.164812    1.587005   -0.619847
  61 C     6.0000    0    12.011   -8.507507   -3.413779   -1.273749
  62 H     1.0000    0     1.008   -4.908123   -3.925925   -3.123731
  63 C     6.0000    0    12.011   -9.494037    0.725838    0.244360
  64 H     1.0000    0     1.008   -6.622509    3.559787   -0.361151
  65 C     6.0000    0    12.011  -10.187995   -1.796447   -0.059111
  66 H     1.0000    0     1.008  -10.779814    2.034676    1.186143
  67 N     7.0000    0    14.007   -9.176221   -6.092273   -1.570578
  68 O     8.0000    0    15.999   -7.578839   -7.507292   -2.452496
  69 O     8.0000    0    15.999  -11.285764   -6.752141   -0.913097
  70 N     7.0000    0    14.007    8.052979   -3.676738   -3.537331
  71 O     8.0000    0    15.999    9.306247   -5.109425   -4.838699
  72 O     8.0000    0    15.999    8.823203   -1.671943   -2.685182
  73 N     7.0000    0    14.007    4.238077   -3.434475    7.766026
  74 O     8.0000    0    15.999    1.952648   -3.745237    7.905522
  75 O     8.0000    0    15.999    5.795767   -4.650367    8.953895
  76 H     1.0000    0     1.008  -11.986905   -2.513865    0.639478
  77 H     1.0000    0     1.008    5.632127   -7.828147   -5.172934
  78 H     1.0000    0     1.008    9.073331   -2.555581    6.517261

--------------------------------
INTERNAL COORDINATES (ANGSTROEM)
--------------------------------
 Fe     0   0   0     0.000000000000     0.00000000     0.00000000
 N      1   0   0     1.988220873670     0.00000000     0.00000000
 C      2   1   0     1.362379547353   114.03856038     0.00000000
 C      2   1   3     1.337561676314   127.45468898   176.90784782
 C      3   2   1     1.394553452700   122.30558969   178.69817310
 C      4   2   1     1.393913485926   122.28924842   181.69410389
 H      4   2   1     1.091626185759   117.07900510     1.21648206
 C      5   3   2     1.391188496630   118.83799624   359.55174727
 H      5   3   2     1.090823326166   119.27650263   179.82053012
 H      6   4   2     1.090409678191   119.17780775   180.36511153
 H      8   5   3     1.091024113218   120.58674382   179.93408165
 C      3   2   1     1.442043916292   113.80381624   358.59795185
 H     12   3   2     1.096419448443   120.93009911   180.92334119
 N     12   3   2     1.296558784963   116.74236723     0.60930307
 C     14  12   3     1.414300364744   119.86657844   177.80854287
 C     15  14  12     1.402051369262   121.19505688   305.64171999
 C     15  14  12     1.395084418751   118.94666004   128.77728740
 C     16  15  14     1.394282865531   120.16505197   184.50647975
 H     16  15  14     1.092666946529   119.57860528     2.50269922
 C     17  15  14     1.388059864919   118.74004257   175.52035435
 H     17  15  14     1.087006593068   121.36118066   353.45418158
 C     18  16  15     1.391127728810   120.66344450   359.69836612
 H     18  16  15     1.091243241579   119.53321926   178.70919559
 N      1   2   3     1.988339301889    96.30396265    91.33498665
 C     24   1   2     1.363473494757   114.00564316   169.75438201
 C     24   1   2     1.337280355567   127.46313853   352.60076565
 C     25  24   1     1.394378233850   122.31687786   184.35995463
 C     26  24   1     1.394200736538   122.24214599   175.63192605
 H     26  24   1     1.092305656773   117.06471331   356.56552937
 C     27  25  24     1.391694327542   118.77439200   359.28285738
 H     27  25  24     1.091176024189   119.26341868   179.86104964
 H     28  26  24     1.090373086007   119.19111217   180.24916692
 H     30  27  25     1.091047229004   120.56587447   179.88101780
 C     25  24   1     1.442516470082   113.99640319     7.15576995
 H     34  25  24     1.097124193458   120.39432277   179.08275281
 N     34  25  24     1.297732404355   116.74349786     2.55679462
 C     36  34  25     1.410202509028   120.28054725   180.88521135
 C     37  36  34     1.403689266998   121.93778591    41.02131000
 C     37  36  34     1.396774158114   118.35253175   218.45875038
 C     38  37  36     1.393947847963   120.12083399   177.11027203
 H     38  37  36     1.092709307988   119.86697644   358.31278769
 C     39  37  36     1.387280629825   118.91284411   182.66130828
 H     39  37  36     1.088028801548   121.04290758     3.26271262
 C     40  38  37     1.391888133135   120.74501176     0.02812465
 H     40  38  37     1.091126265169   119.53219561   180.71105038
 N      1   2   3     2.009401590878    88.22871693   265.27427691
 C     46   1   2     1.361760399247   113.79535482   257.09883318
 C     46   1   2     1.337167637859   128.13169098    78.29345726
 C     47  46   1     1.394761009192   122.51392474   183.36795399
 C     48  46   1     1.394371466499   122.57383909   176.79252333
 H     48  46   1     1.091620257209   117.31229569   357.77457175
 C     50  48  46     1.391438568424   119.43838811     0.24030072
 H     49  47  46     1.090859326950   119.22623368   179.19195606
 H     50  48  46     1.090419137691   119.10877556   180.93587761
 H     52  50  48     1.091087661415   120.84733146   180.68674093
 C     47  46   1     1.441557209572   114.17360050     3.36722314
 H     56  47  46     1.096809026149   120.50406156   182.20725646
 N     56  47  46     1.295416676533   117.19906014     2.90554714
 C     58  56  47     1.412969554614   119.48870618   186.01161584
 C     59  58  56     1.396630970769   119.53203838    50.44576270
 C     59  58  56     1.402803521694   120.41513223   226.71327434
 C     60  59  58     1.391241616956   118.54662317   175.72756941
 H     60  59  58     1.090406651732   121.03975126   357.17849012
 C     61  59  58     1.391419588834   120.14853515   183.27096593
 H     61  59  58     1.091296605829   119.51622894     3.84152662
 C     62  60  59     1.391559814482   122.44531422     0.93862024
 H     64  61  59     1.091341704768   119.63802016   180.52675813
 N     62  60  59     1.469323724525   118.28840620   181.87969555
 O     68  62  60     1.221893877512   117.73481704     5.09377232
 O     68  62  60     1.220310402492   117.76647153   184.89529756
 N     42  39  37     1.469477592965   118.05044066   178.87594733
 O     71  42  39     1.220190042224   117.73896481   179.27709214
 O     71  42  39     1.222686569703   117.78299313   358.97339841
 N     20  17  15     1.468993361819   118.05146500   181.57885359
 O     74  20  17     1.222756453852   117.72968449     6.79546424
 O     74  20  17     1.220074435503   117.78241879   186.27684216
 H     66  62  60     1.089487009823   120.05201194   180.20094532
 H     44  40  38     1.089537337860   121.69627433   180.70231985
 H     22  18  16     1.089528871328   121.76036204   179.00801819

---------------------------
INTERNAL COORDINATES (A.U.)
---------------------------
 Fe     0   0   0     0.000000000000     0.00000000     0.00000000
 N      1   0   0     3.757192944982     0.00000000     0.00000000
 C      2   1   0     2.574524234953   114.03856038     0.00000000
 C      2   1   3     2.527625255463   127.45468898   176.90784782
 C      3   2   1     2.635324104717   122.30558969   178.69817310
 C      4   2   1     2.634114742779   122.28924842   181.69410389
 H      4   2   1     2.062874531701   117.07900510     1.21648206
 C      5   3   2     2.628965259293   118.83799624   359.55174727
 H      5   3   2     2.061357346946   119.27650263   179.82053012
 H      6   4   2     2.060575665558   119.17780775   180.36511153
 H      8   5   3     2.061736779487   120.58674382   179.93408165
 C      3   2   1     2.725068074880   113.80381624   358.59795185
 H     12   3   2     2.071932485461   120.93009911   180.92334119
 N     12   3   2     2.450141020111   116.74236723     0.60930307
 C     14  12   3     2.672640360470   119.86657844   177.80854287
 C     15  14  12     2.649493113595   121.19505688   305.64171999
 C     15  14  12     2.636327485140   118.94666004   128.77728740
 C     16  15  14     2.634812769072   120.16505197   184.50647975
 H     16  15  14     2.064841284528   119.57860528     2.50269922
 C     17  15  14     2.623053002184   118.74004257   175.52035435
 H     17  15  14     2.054144766666   121.36118066   353.45418158
 C     18  16  15     2.628850424755   120.66344450   359.69836612
 H     18  16  15     2.062150872076   119.53321926   178.70919559
 N      1   2   3     3.757416741882    96.30396265    91.33498665
 C     24   1   2     2.576591495951   114.00564316   169.75438201
 C     24   1   2     2.527093636295   127.46313853   352.60076565
 C     25  24   1     2.634992989077   122.31687786   184.35995463
 C     26  24   1     2.634657567767   122.24214599   175.63192605
 H     26  24   1     2.064158545835   117.06471331   356.56552937
 C     27  25  24     2.629921141186   118.77439200   359.28285738
 H     27  25  24     2.062023849618   119.26341868   179.86104964
 H     28  26  24     2.060506516352   119.19111217   180.24916692
 H     30  27  25     2.061780461991   120.56587447   179.88101780
 C     25  24   1     2.725961072127   113.99640319     7.15576995
 H     34  25  24     2.073264260534   120.39432277   179.08275281
 N     34  25  24     2.452358839347   116.74349786     2.55679462
 C     36  34  25     2.664896535432   120.28054725   180.88521135
 C     37  36  34     2.652588291751   121.93778591    41.02131000
 C     37  36  34     2.639520629773   118.35253175   218.45875038
 C     38  37  36     2.634179677620   120.12083399   177.11027203
 H     38  37  36     2.064921336084   119.86697644   358.31278769
 C     39  37  36     2.621580461264   118.91284411   182.66130828
 H     39  37  36     2.056076460744   121.04290758     3.26271262
 C     40  38  37     2.630287380681   120.74501176     0.02812465
 H     40  38  37     2.061929818697   119.53219561   180.71105038
 N      1   2   3     3.797218699825    88.22871693   265.27427691
 C     46   1   2     2.573354214597   113.79535482   257.09883318
 C     46   1   2     2.526880630696   128.13169098    78.29345726
 C     47  46   1     2.635716329644   122.51392474   183.36795399
 C     48  46   1     2.634980200637   122.57383909   176.79252333
 H     48  46   1     2.062863328366   117.31229569   357.77457175
 C     50  48  46     2.629437826496   119.43838811     0.24030072
 H     49  47  46     2.061425378568   119.22623368   179.19195606
 H     50  48  46     2.060593541422   119.10877556   180.93587761
 H     52  50  48     2.061856868176   120.84733146   180.68674093
 C     47  46   1     2.724148332471   114.17360050     3.36722314
 H     56  47  46     2.072668680634   120.50406156   182.20725646
 N     56  47  46     2.447982747963   117.19906014     2.90554714
 C     58  56  47     2.670125493790   119.48870618   186.01161584
 C     59  58  56     2.639250044905   119.53203838    50.44576270
 C     59  58  56     2.650914475703   120.41513223   226.71327434
 C     60  59  58     2.629065642160   118.54662317   175.72756941
 H     60  59  58     2.060569946379   121.03975126   357.17849012
 C     61  59  58     2.629401960269   120.14853515   183.27096593
 H     61  59  58     2.062251715894   119.51622894     3.84152662
 C     62  60  59     2.629666948342   122.44531422     0.93862024
 H     64  61  59     2.062336940537   119.63802016   180.52675813
 N     62  60  59     2.776619441426   118.28840620   181.87969555
 O     68  62  60     2.309044793213   117.73481704     5.09377232
 O     68  62  60     2.306052459084   117.76647153   184.89529756
 N     42  39  37     2.776910210638   118.05044066   178.87594733
 O     71  42  39     2.305825011141   117.73896481   179.27709214
 O     71  42  39     2.310542764363   117.78299313   358.97339841
 N     20  17  15     2.775995146386   118.05146500   181.57885359
 O     74  20  17     2.310674826265   117.72968449     6.79546424
 O     74  20  17     2.305606546100   117.78241879   186.27684216
 H     66  62  60     2.058832075031   120.05201194   180.20094532
 H     44  40  38     2.058927181236   121.69627433   180.70231985
 H     22  18  16     2.058911181811   121.76036204   179.00801819

---------------------
BASIS SET INFORMATION
---------------------
There are 5 groups of distinct atoms

 Group   1 Type Fe  : 14s9p5d1f contracted to 5s3p2d1f pattern {63311/531/41/1}
 Group   2 Type N   : 7s4p1d contracted to 3s2p1d pattern {511/31/1}
 Group   3 Type C   : 7s4p1d contracted to 3s2p1d pattern {511/31/1}
 Group   4 Type H   : 4s1p contracted to 2s1p pattern {31/1}
 Group   5 Type O   : 7s4p1d contracted to 3s2p1d pattern {511/31/1}

Atom   0Fe   basis set group =>   1
Atom   1N    basis set group =>   2
Atom   2C    basis set group =>   3
Atom   3C    basis set group =>   3
Atom   4C    basis set group =>   3
Atom   5C    basis set group =>   3
Atom   6H    basis set group =>   4
Atom   7C    basis set group =>   3
Atom   8H    basis set group =>   4
Atom   9H    basis set group =>   4
Atom  10H    basis set group =>   4
Atom  11C    basis set group =>   3
Atom  12H    basis set group =>   4
Atom  13N    basis set group =>   2
Atom  14C    basis set group =>   3
Atom  15C    basis set group =>   3
Atom  16C    basis set group =>   3
Atom  17C    basis set group =>   3
Atom  18H    basis set group =>   4
Atom  19C    basis set group =>   3
Atom  20H    basis set group =>   4
Atom  21C    basis set group =>   3
Atom  22H    basis set group =>   4
Atom  23N    basis set group =>   2
Atom  24C    basis set group =>   3
Atom  25C    basis set group =>   3
Atom  26C    basis set group =>   3
Atom  27C    basis set group =>   3
Atom  28H    basis set group =>   4
Atom  29C    basis set group =>   3
Atom  30H    basis set group =>   4
Atom  31H    basis set group =>   4
Atom  32H    basis set group =>   4
Atom  33C    basis set group =>   3
Atom  34H    basis set group =>   4
Atom  35N    basis set group =>   2
Atom  36C    basis set group =>   3
Atom  37C    basis set group =>   3
Atom  38C    basis set group =>   3
Atom  39C    basis set group =>   3
Atom  40H    basis set group =>   4
Atom  41C    basis set group =>   3
Atom  42H    basis set group =>   4
Atom  43C    basis set group =>   3
Atom  44H    basis set group =>   4
Atom  45N    basis set group =>   2
Atom  46C    basis set group =>   3
Atom  47C    basis set group =>   3
Atom  48C    basis set group =>   3
Atom  49C    basis set group =>   3
Atom  50H    basis set group =>   4
Atom  51C    basis set group =>   3
Atom  52H    basis set group =>   4
Atom  53H    basis set group =>   4
Atom  54H    basis set group =>   4
Atom  55C    basis set group =>   3
Atom  56H    basis set group =>   4
Atom  57N    basis set group =>   2
Atom  58C    basis set group =>   3
Atom  59C    basis set group =>   3
Atom  60C    basis set group =>   3
Atom  61C    basis set group =>   3
Atom  62H    basis set group =>   4
Atom  63C    basis set group =>   3
Atom  64H    basis set group =>   4
Atom  65C    basis set group =>   3
Atom  66H    basis set group =>   4
Atom  67N    basis set group =>   2
Atom  68O    basis set group =>   5
Atom  69O    basis set group =>   5
Atom  70N    basis set group =>   2
Atom  71O    basis set group =>   5
Atom  72O    basis set group =>   5
Atom  73N    basis set group =>   2
Atom  74O    basis set group =>   5
Atom  75O    basis set group =>   5
Atom  76H    basis set group =>   4
Atom  77H    basis set group =>   4
Atom  78H    basis set group =>   4
---------------------------------
AUXILIARY/J BASIS SET INFORMATION
---------------------------------
There are 5 groups of distinct atoms

 Group   1 Type Fe  : 19s5p5d3f3g contracted to 8s5p5d2f3g pattern {121111111/11111/11111/21/111}
 Group   2 Type N   : 12s5p4d2f1g contracted to 6s4p3d1f1g pattern {711111/2111/211/2/1}
 Group   3 Type C   : 12s5p4d2f1g contracted to 6s4p3d1f1g pattern {711111/2111/211/2/1}
 Group   4 Type H   : 5s2p1d contracted to 3s1p1d pattern {311/2/1}
 Group   5 Type O   : 12s5p4d2f1g contracted to 6s4p3d1f1g pattern {711111/2111/211/2/1}

Atom   0Fe   basis set group =>   1
Atom   1N    basis set group =>   2
Atom   2C    basis set group =>   3
Atom   3C    basis set group =>   3
Atom   4C    basis set group =>   3
Atom   5C    basis set group =>   3
Atom   6H    basis set group =>   4
Atom   7C    basis set group =>   3
Atom   8H    basis set group =>   4
Atom   9H    basis set group =>   4
Atom  10H    basis set group =>   4
Atom  11C    basis set group =>   3
Atom  12H    basis set group =>   4
Atom  13N    basis set group =>   2
Atom  14C    basis set group =>   3
Atom  15C    basis set group =>   3
Atom  16C    basis set group =>   3
Atom  17C    basis set group =>   3
Atom  18H    basis set group =>   4
Atom  19C    basis set group =>   3
Atom  20H    basis set group =>   4
Atom  21C    basis set group =>   3
Atom  22H    basis set group =>   4
Atom  23N    basis set group =>   2
Atom  24C    basis set group =>   3
Atom  25C    basis set group =>   3
Atom  26C    basis set group =>   3
Atom  27C    basis set group =>   3
Atom  28H    basis set group =>   4
Atom  29C    basis set group =>   3
Atom  30H    basis set group =>   4
Atom  31H    basis set group =>   4
Atom  32H    basis set group =>   4
Atom  33C    basis set group =>   3
Atom  34H    basis set group =>   4
Atom  35N    basis set group =>   2
Atom  36C    basis set group =>   3
Atom  37C    basis set group =>   3
Atom  38C    basis set group =>   3
Atom  39C    basis set group =>   3
Atom  40H    basis set group =>   4
Atom  41C    basis set group =>   3
Atom  42H    basis set group =>   4
Atom  43C    basis set group =>   3
Atom  44H    basis set group =>   4
Atom  45N    basis set group =>   2
Atom  46C    basis set group =>   3
Atom  47C    basis set group =>   3
Atom  48C    basis set group =>   3
Atom  49C    basis set group =>   3
Atom  50H    basis set group =>   4
Atom  51C    basis set group =>   3
Atom  52H    basis set group =>   4
Atom  53H    basis set group =>   4
Atom  54H    basis set group =>   4
Atom  55C    basis set group =>   3
Atom  56H    basis set group =>   4
Atom  57N    basis set group =>   2
Atom  58C    basis set group =>   3
Atom  59C    basis set group =>   3
Atom  60C    basis set group =>   3
Atom  61C    basis set group =>   3
Atom  62H    basis set group =>   4
Atom  63C    basis set group =>   3
Atom  64H    basis set group =>   4
Atom  65C    basis set group =>   3
Atom  66H    basis set group =>   4
Atom  67N    basis set group =>   2
Atom  68O    basis set group =>   5
Atom  69O    basis set group =>   5
Atom  70N    basis set group =>   2
Atom  71O    basis set group =>   5
Atom  72O    basis set group =>   5
Atom  73N    basis set group =>   2
Atom  74O    basis set group =>   5
Atom  75O    basis set group =>   5
Atom  76H    basis set group =>   4
Atom  77H    basis set group =>   4
Atom  78H    basis set group =>   4
---------------------------------
AUXILIARY/C BASIS SET INFORMATION
---------------------------------
There are 5 groups of distinct atoms

 Group   1 Type Fe  : 9s9p6d4f3g2h contracted to 9s9p6d4f3g2h pattern {111111111/111111111/111111/1111/111/11}
 Group   2 Type N   : 8s6p5d3f contracted to 6s5p4d1f pattern {311111/21111/2111/3}
 Group   3 Type C   : 8s6p5d3f contracted to 6s5p4d1f pattern {311111/21111/2111/3}
 Group   4 Type H   : 4s3p2d contracted to 3s2p1d pattern {211/21/2}
 Group   5 Type O   : 8s6p5d3f contracted to 6s5p4d1f pattern {311111/21111/2111/3}

Atom   0Fe   basis set group =>   1
Atom   1N    basis set group =>   2
Atom   2C    basis set group =>   3
Atom   3C    basis set group =>   3
Atom   4C    basis set group =>   3
Atom   5C    basis set group =>   3
Atom   6H    basis set group =>   4
Atom   7C    basis set group =>   3
Atom   8H    basis set group =>   4
Atom   9H    basis set group =>   4
Atom  10H    basis set group =>   4
Atom  11C    basis set group =>   3
Atom  12H    basis set group =>   4
Atom  13N    basis set group =>   2
Atom  14C    basis set group =>   3
Atom  15C    basis set group =>   3
Atom  16C    basis set group =>   3
Atom  17C    basis set group =>   3
Atom  18H    basis set group =>   4
Atom  19C    basis set group =>   3
Atom  20H    basis set group =>   4
Atom  21C    basis set group =>   3
Atom  22H    basis set group =>   4
Atom  23N    basis set group =>   2
Atom  24C    basis set group =>   3
Atom  25C    basis set group =>   3
Atom  26C    basis set group =>   3
Atom  27C    basis set group =>   3
Atom  28H    basis set group =>   4
Atom  29C    basis set group =>   3
Atom  30H    basis set group =>   4
Atom  31H    basis set group =>   4
Atom  32H    basis set group =>   4
Atom  33C    basis set group =>   3
Atom  34H    basis set group =>   4
Atom  35N    basis set group =>   2
Atom  36C    basis set group =>   3
Atom  37C    basis set group =>   3
Atom  38C    basis set group =>   3
Atom  39C    basis set group =>   3
Atom  40H    basis set group =>   4
Atom  41C    basis set group =>   3
Atom  42H    basis set group =>   4
Atom  43C    basis set group =>   3
Atom  44H    basis set group =>   4
Atom  45N    basis set group =>   2
Atom  46C    basis set group =>   3
Atom  47C    basis set group =>   3
Atom  48C    basis set group =>   3
Atom  49C    basis set group =>   3
Atom  50H    basis set group =>   4
Atom  51C    basis set group =>   3
Atom  52H    basis set group =>   4
Atom  53H    basis set group =>   4
Atom  54H    basis set group =>   4
Atom  55C    basis set group =>   3
Atom  56H    basis set group =>   4
Atom  57N    basis set group =>   2
Atom  58C    basis set group =>   3
Atom  59C    basis set group =>   3
Atom  60C    basis set group =>   3
Atom  61C    basis set group =>   3
Atom  62H    basis set group =>   4
Atom  63C    basis set group =>   3
Atom  64H    basis set group =>   4
Atom  65C    basis set group =>   3
Atom  66H    basis set group =>   4
Atom  67N    basis set group =>   2
Atom  68O    basis set group =>   5
Atom  69O    basis set group =>   5
Atom  70N    basis set group =>   2
Atom  71O    basis set group =>   5
Atom  72O    basis set group =>   5
Atom  73N    basis set group =>   2
Atom  74O    basis set group =>   5
Atom  75O    basis set group =>   5
Atom  76H    basis set group =>   4
Atom  77H    basis set group =>   4
Atom  78H    basis set group =>   4


           ************************************************************
           *        Program running with 8 parallel MPI-processes     *
           *              working on a common directory               *
           ************************************************************
------------------------------------------------------------------------------
                           ORCA GTO INTEGRAL CALCULATION
                           -- RI-GTO INTEGRALS CHOSEN --
------------------------------------------------------------------------------
------------------------------------------------------------------------------
                   ___                                                        
                  /   \      - P O W E R E D   B Y -                         
                 /     \                                                     
                 |  |  |   _    _      __       _____    __    __             
                 |  |  |  | |  | |    /  \     |  _  \  |  |  /  |          
                  \  \/   | |  | |   /    \    | | | |  |  | /  /          
                 / \  \   | |__| |  /  /\  \   | |_| |  |  |/  /          
                |  |  |   |  __  | /  /__\  \  |    /   |      \           
                |  |  |   | |  | | |   __   |  |    \   |  |\   \          
                \     /   | |  | | |  |  |  |  | |\  \  |  | \   \       
                 \___/    |_|  |_| |__|  |__|  |_| \__\ |__|  \__/        
                                                                              
                      - O R C A' S   B I G   F R I E N D -                    
                                      &                                       
                       - I N T E G R A L  F E E D E R -                       
                                                                              
 v1 FN, 2020, v2 2021                                                         
------------------------------------------------------------------------------


Reading SHARK input file FeC_4_SOS-wPBEPP86_def2SVP.SHARKINP.tmp ... ok
----------------------
SHARK INTEGRAL PACKAGE
----------------------

Number of atoms                             ...     79
Number of basis functions                   ...    880
Number of shells                            ...    398
Maximum angular momentum                    ...      3
Integral batch strategy                     ... SHARK/LIBINT Hybrid
RI-J (if used) integral strategy            ... SPLIT-RIJ (Revised 2003 algorithm where possible)
Printlevel                                  ...      1
Contraction scheme used                     ... SEGMENTED contraction
Coulomb Range Separation                    ... NOT USED
Exchange Range Separation                   ... Long Range
   Mu parameter                             ...  0.180000
   Scaling (regular/separated)              ...  0.700000  0.300000
Finite Nucleus Model                        ... NOT USED
Auxiliary Coulomb fitting basis             ... AVAILABLE
   # of basis functions in Aux-J            ...   2885
   # of shells in Aux-J                     ...    923
   Maximum angular momentum in Aux-J        ...      4
Auxiliary J/K fitting basis                 ... NOT available
Auxiliary Correlation fitting basis         ... AVAILABLE
   # of basis functions in Aux-C            ...   2969
   # of shells in Aux-C                     ...   1011
   Maximum angular momentum in Aux-C        ...      5
Auxiliary 'external' fitting basis          ... NOT available
Integral threshold                          ...     2.500000e-11
Primitive cut-off                           ...     2.500000e-12
Primitive pair pre-selection threshold      ...     2.500000e-12

Calculating pre-screening integrals         ... done (  0.1 sec) Dimension = 398
Organizing shell pair data                  ... done (  0.2 sec)
Shell pair information
Total number of shell pairs                 ...     79401
Shell pairs after pre-screening             ...     48690
Total number of primitive shell pairs       ...    302260
Primitive shell pairs kept                  ...    106146
          la=0 lb=0:  14274 shell pairs
          la=1 lb=0:  18085 shell pairs
          la=1 lb=1:   5822 shell pairs
          la=2 lb=0:   5901 shell pairs
          la=2 lb=1:   3814 shell pairs
          la=2 lb=2:    541 shell pairs
          la=3 lb=0:    134 shell pairs
          la=3 lb=1:     89 shell pairs
          la=3 lb=2:     29 shell pairs
          la=3 lb=3:      1 shell pairs

Calculating one electron integrals          ... done (  0.1 sec)
Calculating RI/J V-Matrix + Cholesky decomp.... done (  0.5 sec)
Calculating RI/C V-Matrix + Cholesky decomp.... done (  0.5 sec)
Calculating Nuclear repulsion               ... done (  0.0 sec) ENN=   8285.219738881664 Eh

SHARK setup successfully completed in   1.8 seconds

Maximum memory used throughout the entire GTOINT-calculation: 87.7 MB


           ************************************************************
           *        Program running with 8 parallel MPI-processes     *
           *              working on a common directory               *
           ************************************************************
-------------------------------------------------------------------------------
                                 ORCA SCF
-------------------------------------------------------------------------------

------------
SCF SETTINGS
------------
Hamiltonian:
 Density Functional     Method          .... DFT(GTOs)
 Exchange Functional    Exchange        .... LC-PBE
 Correlation Functional Correlation     .... P86
 LDA part of GGA corr.  LDAOpt          .... VWN-5
 Gradients option       PostSCFGGA      .... off
 Hybrid DFT is turned on
   Fraction HF Exchange ScalHFX         ....  0.700000
   Scaling of DF-GGA-X  ScalDFX         ....  0.000000
   Scaling of DF-GGA-C  ScalDFC         ....  0.680000
   Scaling of DF-LDA-C  ScalLDAC        ....  0.680000
   Perturbative correction              ....  0.480000
   Density functional embedding theory  .... OFF
 Long-range corrected/Screened/Range-Separated Hybrid DFT is turned on
   Amount of maximum screened exact exchange              ....  0.300000
   Range separation parameter mu (erf(mu*r12)/r12)        ....  0.180000
 RI-approximation to the Coulomb term is turned on
   Number of AuxJ basis functions       .... 2885
   RIJ-COSX (HFX calculated with COS-X)).... on


General Settings:
 Integral files         IntName         .... FeC_4_SOS-wPBEPP86_def2SVP
 Hartree-Fock type      HFTyp           .... RHF
 Total Charge           Charge          ....    2
 Multiplicity           Mult            ....    1
 Number of Electrons    NEL             ....  378
 Basis Dimension        Dim             ....  880
 Nuclear Repulsion      ENuc            ....   8285.2197388817 Eh

Convergence Acceleration:
 DIIS                   CNVDIIS         .... on
   Start iteration      DIISMaxIt       ....    12
   Startup error        DIISStart       ....  0.200000
   # of expansion vecs  DIISMaxEq       ....     5
   Bias factor          DIISBfac        ....   1.050
   Max. coefficient     DIISMaxC        ....  10.000
 Trust-Rad. Augm. Hess. CNVTRAH         .... auto
   Auto Start mean grad. ratio tolernc. ....  1.125000
   Auto Start start iteration           ....    20
   Auto Start num. interpolation iter.  ....    10
   Max. Number of Micro iterations      ....    16
   Max. Number of Macro iterations      .... Maxiter - #DIIS iter
   Number of Davidson start vectors     ....     2
   Converg. threshold I  (grad. norm)   ....   1.000e-05
   Converg. threshold II (energy diff.) ....   1.000e-08
   Grad. Scal. Fac. for Micro threshold ....   0.100
   Minimum threshold for Micro iter.    ....   0.010
   NR start threshold (gradient norm)   ....   0.001
   Initial trust radius                 ....   0.400
   Minimum AH scaling param. (alpha)    ....   1.000
   Maximum AH scaling param. (alpha)    .... 1000.000
   Orbital update algorithm             .... Taylor
   White noise on init. David. guess    .... on
   Maximum white noise                  ....   0.010
   Quad. conv. algorithm                .... NR
 SOSCF                  CNVSOSCF        .... off
 Level Shifting         CNVShift        .... on
   Level shift para.    LevelShift      ....    0.2500
   Turn off err/grad.   ShiftErr        ....    0.0010
 Zerner damping         CNVZerner       .... off
 Static damping         CNVDamp         .... on
   Fraction old density DampFac         ....    0.7000
   Max. Damping (<1)    DampMax         ....    0.9800
   Min. Damping (>=0)   DampMin         ....    0.0000
   Turn off err/grad.   DampErr         ....    0.1000
 Fernandez-Rico         CNVRico         .... off

SCF Procedure:
 Maximum # iterations   MaxIter         ....   125
 SCF integral mode      SCFMode         .... Direct
   Integral package                     .... SHARK and LIBINT hybrid scheme
 Reset frequency        DirectResetFreq ....    20
 Integral Threshold     Thresh          ....  2.500e-11 Eh
 Primitive CutOff       TCut            ....  2.500e-12 Eh

Convergence Tolerance:
 Convergence Check Mode ConvCheckMode   .... Total+1el-Energy
 Convergence forced     ConvForced      .... 1
 Energy Change          TolE            ....  1.000e-08 Eh
 1-El. energy change                    ....  1.000e-05 Eh
 DIIS Error             TolErr          ....  5.000e-07


Diagonalization of the overlap matrix:
Smallest eigenvalue                        ... 2.117e-04
Time for diagonalization                   ...    0.133 sec
Threshold for overlap eigenvalues          ... 1.000e-08
Number of eigenvalues below threshold      ... 0
Time for construction of square roots      ...    0.072 sec
Total time needed                          ...    0.208 sec

Time for model grid setup =    0.827 sec

------------------------------
INITIAL GUESS: MODEL POTENTIAL
------------------------------
Loading Hartree-Fock densities                     ... done
Calculating cut-offs                               ... done
Initializing the effective Hamiltonian             ... done
Setting up the integral package (SHARK)            ... done
Starting the Coulomb interaction                   ... done (   0.8 sec)
Reading the grid                                   ... done
Mapping shells                                     ... done
Starting the XC term evaluation                    ... done (   0.3 sec)
  promolecular density results
     # of electrons  =    379.981406314
     EX              =   -342.067329203
     EC              =     -6.534720056
     EX+EC           =   -348.602049259
Transforming the Hamiltonian                       ... done (   0.1 sec)
Diagonalizing the Hamiltonian                      ... done (   0.1 sec)
Back transforming the eigenvectors                 ... done (   0.0 sec)
Now organizing SCF variables                       ... done
                      ------------------
                      INITIAL GUESS DONE (   2.2 sec)
                      ------------------
-------------------
DFT GRID GENERATION
-------------------

General Integration Accuracy     IntAcc      ... 4.388
Radial Grid Type                 RadialGrid  ... OptM3 with GC (2021)
Angular Grid (max. ang.)         AngularGrid ... 4 (Lebedev-302)
Angular grid pruning method      GridPruning ... 4 (adaptive)
Weight generation scheme         WeightScheme... Becke
Basis function cutoff            BFCut       ... 1.0000e-11
Integration weight cutoff        WCut        ... 1.0000e-14
Angular grids for H and He will be reduced by one unit
Partially contracted basis set               ... off
Rotationally invariant grid construction     ... off

Total number of grid points                  ...   396859
Total number of batches                      ...     6246
Average number of points per batch           ...       63
Average number of grid points per atom       ...     5024
Time for grid setup =    3.169 sec

--------------------
COSX GRID GENERATION
--------------------

GRIDX 1
-------
General Integration Accuracy     IntAcc      ... 3.816
Radial Grid Type                 RadialGrid  ... OptM3 with GC (2021)
Angular Grid (max. ang.)         AngularGrid ... 1 (Lebedev-50)
Angular grid pruning method      GridPruning ... 4 (adaptive)
Weight generation scheme         WeightScheme... Becke
Basis function cutoff            BFCut       ... 1.0000e-11
Integration weight cutoff        WCut        ... 1.0000e-14
Angular grids for H and He will be reduced by one unit
Partially contracted basis set               ... on
Rotationally invariant grid construction     ... off

Total number of grid points                  ...    49904
Total number of batches                      ...      811
Average number of points per batch           ...       61
Average number of grid points per atom       ...      632
UseSFitting                                  ... on

GRIDX 2
-------
General Integration Accuracy     IntAcc      ... 4.020
Radial Grid Type                 RadialGrid  ... OptM3 with GC (2021)
Angular Grid (max. ang.)         AngularGrid ... 2 (Lebedev-110)
Angular grid pruning method      GridPruning ... 4 (adaptive)
Weight generation scheme         WeightScheme... Becke
Basis function cutoff            BFCut       ... 1.0000e-11
Integration weight cutoff        WCut        ... 1.0000e-14
Angular grids for H and He will be reduced by one unit
Partially contracted basis set               ... on
Rotationally invariant grid construction     ... off

Total number of grid points                  ...   108813
Total number of batches                      ...     1737
Average number of points per batch           ...       62
Average number of grid points per atom       ...     1377
UseSFitting                                  ... on

GRIDX 3
-------
General Integration Accuracy     IntAcc      ... 4.338
Radial Grid Type                 RadialGrid  ... OptM3 with GC (2021)
Angular Grid (max. ang.)         AngularGrid ... 3 (Lebedev-194)
Angular grid pruning method      GridPruning ... 4 (adaptive)
Weight generation scheme         WeightScheme... Becke
Basis function cutoff            BFCut       ... 1.0000e-11
Integration weight cutoff        WCut        ... 1.0000e-14
Angular grids for H and He will be reduced by one unit
Partially contracted basis set               ... on
Rotationally invariant grid construction     ... off

Total number of grid points                  ...   237002
Total number of batches                      ...     3748
Average number of points per batch           ...       63
Average number of grid points per atom       ...     3000
UseSFitting                                  ... on

Time for X-Grid setup             =    3.379 sec


--------------------
CPCM SOLVATION MODEL
--------------------
CPCM parameters:
  Epsilon                                         ...      35.6880
  Refrac                                          ...       1.3442
  Rsolv                                           ...       1.3000
  Surface type                                    ... GAUSSIAN VDW
  Epsilon function type                           ...         CPCM
Solvent:                                     ... ACETONITRILE
SMD-CDS solvent descriptors:
  Soln                                       ...    1.3442
  Soln25                                     ...    1.3416
  Sola                                       ...    0.0700
  Solb                                       ...    0.3200
  Solg                                       ...   41.2500
  Solc                                       ...    0.0000
  Solh                                       ...    0.0000
Radii:
 Radius for Fe used is    3.6661 Bohr (=   1.9400 Ang.)
 Radius for N  used is    3.5716 Bohr (=   1.8900 Ang.)
 Radius for C  used is    3.4960 Bohr (=   1.8500 Ang.)
 Radius for H  used is    2.2677 Bohr (=   1.2000 Ang.)
 Radius for O  used is    4.0969 Bohr (=   2.1680 Ang.)
Calculating surface                               ...        done! (  0.0s)
GEPOL surface points                              ...         4216
GEPOL Volume                                      ...    4965.4768
GEPOL Surface-area                                ...    2351.6635
Calculating surface distance matrix               ...        done! (  0.1s)
Performing Cholesky decomposition & store         ...        done! (  0.5s)
Overall time for CPCM initialization              ...                 0.6s
--------------
SCF ITERATIONS
--------------
ITER       Energy         Delta-E        Max-DP      RMS-DP      [F,P]     Damp
               ***  Starting incremental Fock matrix formation  ***
  0  -3585.6266362571   0.000000000000 0.08274632  0.00123203  0.2184672 0.7000
  1  -3586.0103164094  -0.383680152243 0.05647255  0.00093379  0.1091957 0.7000
                               ***Turning on DIIS***
  2  -3586.2166481544  -0.206331744973 0.19498371  0.00218273  0.0680801 0.0000
  3  -3586.6516188753  -0.434970720977 0.03907188  0.00036499  0.0492512 0.0000
  4  -3586.6953471504  -0.043728275048 0.04027180  0.00023717  0.0329781 0.0000
  5  -3586.7069924883  -0.011645337934 0.03382180  0.00015682  0.0235030 0.0000
  6  -3586.7123330525  -0.005340564202 0.01604542  0.00009175  0.0133353 0.0000
  7  -3586.7142248250  -0.001891772442 0.00806499  0.00005362  0.0052525 0.0000
  8  -3586.7148721860  -0.000647361066 0.00277991  0.00002465  0.0016204 0.0000
  9  -3586.7150277466  -0.000155560593 0.00188818  0.00002084  0.0008312 0.0000
               *** Restarting incremental Fock matrix formation ***
                                   *** Resetting DIIS ***
 10  -3586.7150056308   0.000022115810 0.00087155  0.00001684  0.0004759 0.0000
 11  -3586.7150109704  -0.000005339607 0.00027185  0.00000290  0.0003690 0.0000
 12  -3586.7150123415  -0.000001371085 0.00050290  0.00000230  0.0003065 0.0000
 13  -3586.7150132094  -0.000000867891 0.00035150  0.00000142  0.0002227 0.0000
 14  -3586.7150136365  -0.000000427122 0.00037416  0.00000107  0.0001518 0.0000
 15  -3586.7150137889  -0.000000152391 0.00025625  0.00000078  0.0000914 0.0000
 16  -3586.7150139374  -0.000000148509 0.00014995  0.00000041  0.0000516 0.0000
 17  -3586.7150139309   0.000000006475 0.00010716  0.00000032  0.0000421 0.0000
 18  -3586.7150139270   0.000000003901 0.00005047  0.00000017  0.0000329 0.0000
 19  -3586.7150139093   0.000000017779 0.00003952  0.00000013  0.0000270 0.0000
 20  -3586.7150139244  -0.000000015104 0.00003511  0.00000011  0.0000221 0.0000
 21  -3586.7150138799   0.000000044485 0.00002930  0.00000009  0.0000176 0.0000
 22  -3586.7150138467   0.000000033182 0.00003741  0.00000011  0.0000141 0.0000
 23  -3586.7150139023  -0.000000055609 0.00003738  0.00000011  0.0000094 0.0000
 24  -3586.7150139441  -0.000000041743 0.00003048  0.00000009  0.0000054 0.0000
 25  -3586.7150140063  -0.000000062246 0.00001131  0.00000004  0.0000035 0.0000
 26  -3586.7150139884   0.000000017863 0.00000652  0.00000002  0.0000024 0.0000
 27  -3586.7150140094  -0.000000020933 0.00000307  0.00000001  0.0000016 0.0000
                            ***DIIS convergence achieved***

               *****************************************************
               *                     SUCCESS                       *
               *           SCF CONVERGED AFTER  28 CYCLES          *
               *****************************************************

Old exchange energy                            =   -261.888919332 Eh
New exchange energy                            =   -261.889139088 Eh
Exchange energy change after final integration =     -0.000219756 Eh
Total energy after final integration           =  -3586.715233770 Eh
Final COS-X integration done in                =    87.920 sec

SMD CDS free energy correction energy :                -6.61083     Kcal/mol
Total Energy after SMD CDS correction =             -3586.725768790 Eh

----------------
TOTAL SCF ENERGY
----------------

Total Energy       :        -3586.72576879 Eh          -97599.77005 eV

Components:
Nuclear Repulsion  :         8285.21973888 Eh          225452.29087 eV
Electronic Energy  :       -11871.94550767 Eh         -323052.06091 eV
One Electron Energy:       -21338.21067709 Eh         -580642.23180 eV
Two Electron Energy:         9466.26516942 Eh          257590.17089 eV
Max COSX asymmetry :            0.00003094 Eh               0.00084 eV
CPCM Dielectric    :           -0.28615929 Eh              -7.78679 eV
SMD CDS (Gcds)     :           -0.01053502 Eh              -0.28667 eV

Virial components:
Potential Energy   :        -7152.85965890 Eh         -194639.20658 eV
Kinetic Energy     :         3566.13389011 Eh           97039.43654 eV
Virial Ratio       :            2.00577429


DFT components:
N(Alpha)           :      189.000019753276 electrons
N(Beta)            :      189.000019753276 electrons
N(Total)           :      378.000039506553 electrons
E(X)               :      -94.992302116356 Eh       
E(C)               :       -9.896164730268 Eh       
E(XC)              :     -104.888466846625 Eh       
DFET-embed. en.    :        0.000000000000 Eh       
CPCM Solvation Model Properties:
Surface-charge          :           -2.03587445
Charge-correction       :            0.00637481 Eh               0.17347 eV
Free-energy (cav+disp)  :           -0.01053502 Eh              -0.28667 eV

---------------
SCF CONVERGENCE
---------------

  Last Energy change         ...   -4.4870e-09  Tolerance :   1.0000e-08
  Last MAX-Density change    ...    0.0000e+00  Tolerance :   1.0000e-07
  Last RMS-Density change    ...    0.0000e+00  Tolerance :   5.0000e-09
  Last DIIS Error            ...    9.9649e-07  Tolerance :   5.0000e-07

             **** THE GBW FILE WAS UPDATED (FeC_4_SOS-wPBEPP86_def2SVP.gbw) ****
             **** DENSITY FeC_4_SOS-wPBEPP86_def2SVP.scfp WAS UPDATED ****
             **** ENERGY FILE WAS UPDATED (FeC_4_SOS-wPBEPP86_def2SVP.en.tmp) ****
             **** THE GBW FILE WAS UPDATED (FeC_4_SOS-wPBEPP86_def2SVP.gbw) ****
             **** DENSITY FeC_4_SOS-wPBEPP86_def2SVP.scfp WAS UPDATED ****
----------------
ORBITAL ENERGIES
----------------

  NO   OCC          E(Eh)            E(eV) 
   0   2.0000    -259.392713     -7058.4346 
   1   2.0000     -31.238873      -850.0530 
   2   2.0000     -26.863499      -730.9930 
   3   2.0000     -26.863169      -730.9840 
   4   2.0000     -26.861337      -730.9341 
   5   2.0000     -20.111811      -547.2702 
   6   2.0000     -20.111167      -547.2527 
   7   2.0000     -20.111011      -547.2484 
   8   2.0000     -20.110857      -547.2442 
   9   2.0000     -20.110631      -547.2381 
  10   2.0000     -20.110347      -547.2304 
  11   2.0000     -15.417885      -419.5420 
  12   2.0000     -15.417251      -419.5247 
  13   2.0000     -15.417233      -419.5242 
  14   2.0000     -15.201011      -413.6405 
  15   2.0000     -15.200077      -413.6151 
  16   2.0000     -15.199427      -413.5974 
  17   2.0000     -15.199392      -413.5965 
  18   2.0000     -15.199300      -413.5940 
  19   2.0000     -15.198833      -413.5813 
  20   2.0000     -10.974094      -298.6203 
  21   2.0000     -10.973479      -298.6036 
  22   2.0000     -10.973410      -298.6017 
  23   2.0000     -10.956096      -298.1305 
  24   2.0000     -10.954948      -298.0993 
  25   2.0000     -10.954325      -298.0823 
  26   2.0000     -10.952932      -298.0444 
  27   2.0000     -10.952551      -298.0341 
  28   2.0000     -10.952142      -298.0229 
  29   2.0000     -10.948154      -297.9144 
  30   2.0000     -10.947873      -297.9068 
  31   2.0000     -10.947832      -297.9057 
  32   2.0000     -10.947422      -297.8945 
  33   2.0000     -10.946692      -297.8746 
  34   2.0000     -10.946576      -297.8715 
  35   2.0000     -10.920403      -297.1593 
  36   2.0000     -10.919518      -297.1352 
  37   2.0000     -10.919310      -297.1295 
  38   2.0000     -10.918118      -297.0971 
  39   2.0000     -10.917554      -297.0817 
  40   2.0000     -10.916674      -297.0578 
  41   2.0000     -10.916637      -297.0568 
  42   2.0000     -10.915727      -297.0320 
  43   2.0000     -10.915411      -297.0234 
  44   2.0000     -10.914386      -296.9955 
  45   2.0000     -10.913584      -296.9737 
  46   2.0000     -10.913121      -296.9611 
  47   2.0000     -10.911959      -296.9295 
  48   2.0000     -10.911865      -296.9269 
  49   2.0000     -10.911242      -296.9100 
  50   2.0000     -10.909453      -296.8613 
  51   2.0000     -10.908949      -296.8476 
  52   2.0000     -10.908513      -296.8357 
  53   2.0000     -10.904428      -296.7246 
  54   2.0000     -10.903880      -296.7097 
  55   2.0000     -10.903493      -296.6991 
  56   2.0000      -3.891760      -105.9002 
  57   2.0000      -2.544575       -69.2414 
  58   2.0000      -2.542996       -69.1984 
  59   2.0000      -2.538621       -69.0794 
  60   2.0000      -1.524165       -41.4746 
  61   2.0000      -1.523636       -41.4602 
  62   2.0000      -1.523427       -41.4545 
  63   2.0000      -1.325894       -36.0794 
  64   2.0000      -1.325284       -36.0628 
  65   2.0000      -1.325159       -36.0594 
  66   2.0000      -1.253125       -34.0993 
  67   2.0000      -1.242662       -33.8145 
  68   2.0000      -1.240787       -33.7635 
  69   2.0000      -1.208438       -32.8833 
  70   2.0000      -1.207995       -32.8712 
  71   2.0000      -1.206443       -32.8290 
  72   2.0000      -1.127302       -30.6754 
  73   2.0000      -1.126876       -30.6638 
  74   2.0000      -1.126367       -30.6500 
  75   2.0000      -1.053529       -28.6680 
  76   2.0000      -1.052176       -28.6312 
  77   2.0000      -1.050729       -28.5918 
  78   2.0000      -1.043422       -28.3930 
  79   2.0000      -1.042439       -28.3662 
  80   2.0000      -1.041901       -28.3516 
  81   2.0000      -1.020619       -27.7724 
  82   2.0000      -1.020413       -27.7669 
  83   2.0000      -1.019922       -27.7535 
  84   2.0000      -0.984297       -26.7841 
  85   2.0000      -0.983425       -26.7604 
  86   2.0000      -0.980619       -26.6840 
  87   2.0000      -0.916652       -24.9434 
  88   2.0000      -0.912881       -24.8408 
  89   2.0000      -0.912143       -24.8207 
  90   2.0000      -0.896161       -24.3858 
  91   2.0000      -0.893784       -24.3211 
  92   2.0000      -0.892430       -24.2843 
  93   2.0000      -0.853044       -23.2125 
  94   2.0000      -0.852523       -23.1983 
  95   2.0000      -0.851982       -23.1836 
  96   2.0000      -0.828875       -22.5548 
  97   2.0000      -0.824242       -22.4288 
  98   2.0000      -0.823109       -22.3979 
  99   2.0000      -0.808091       -21.9893 
 100   2.0000      -0.806102       -21.9351 
 101   2.0000      -0.795007       -21.6332 
 102   2.0000      -0.776970       -21.1424 
 103   2.0000      -0.774908       -21.0863 
 104   2.0000      -0.774210       -21.0673 
 105   2.0000      -0.752220       -20.4690 
 106   2.0000      -0.749794       -20.4029 
 107   2.0000      -0.748862       -20.3776 
 108   2.0000      -0.737535       -20.0694 
 109   2.0000      -0.722422       -19.6581 
 110   2.0000      -0.720271       -19.5996 
 111   2.0000      -0.719624       -19.5820 
 112   2.0000      -0.719554       -19.5801 
 113   2.0000      -0.718621       -19.5547 
 114   2.0000      -0.710099       -19.3228 
 115   2.0000      -0.708210       -19.2714 
 116   2.0000      -0.707300       -19.2466 
 117   2.0000      -0.691485       -18.8163 
 118   2.0000      -0.686605       -18.6835 
 119   2.0000      -0.686149       -18.6711 
 120   2.0000      -0.679053       -18.4780 
 121   2.0000      -0.678459       -18.4618 
 122   2.0000      -0.674649       -18.3581 
 123   2.0000      -0.664193       -18.0736 
 124   2.0000      -0.662262       -18.0211 
 125   2.0000      -0.660988       -17.9864 
 126   2.0000      -0.653817       -17.7913 
 127   2.0000      -0.651365       -17.7245 
 128   2.0000      -0.649720       -17.6798 
 129   2.0000      -0.646426       -17.5902 
 130   2.0000      -0.645523       -17.5656 
 131   2.0000      -0.639577       -17.4038 
 132   2.0000      -0.624919       -17.0049 
 133   2.0000      -0.619691       -16.8627 
 134   2.0000      -0.615529       -16.7494 
 135   2.0000      -0.614110       -16.7108 
 136   2.0000      -0.611016       -16.6266 
 137   2.0000      -0.607226       -16.5235 
 138   2.0000      -0.605685       -16.4815 
 139   2.0000      -0.600486       -16.3401 
 140   2.0000      -0.593850       -16.1595 
 141   2.0000      -0.588668       -16.0185 
 142   2.0000      -0.583246       -15.8709 
 143   2.0000      -0.575230       -15.6528 
 144   2.0000      -0.560537       -15.2530 
 145   2.0000      -0.555317       -15.1109 
 146   2.0000      -0.549904       -14.9636 
 147   2.0000      -0.544228       -14.8092 
 148   2.0000      -0.542070       -14.7505 
 149   2.0000      -0.541384       -14.7318 
 150   2.0000      -0.538617       -14.6565 
 151   2.0000      -0.538146       -14.6437 
 152   2.0000      -0.533975       -14.5302 
 153   2.0000      -0.533283       -14.5114 
 154   2.0000      -0.531301       -14.4574 
 155   2.0000      -0.523770       -14.2525 
 156   2.0000      -0.518131       -14.0991 
 157   2.0000      -0.512945       -13.9579 
 158   2.0000      -0.508318       -13.8320 
 159   2.0000      -0.498555       -13.5664 
 160   2.0000      -0.492698       -13.4070 
 161   2.0000      -0.490991       -13.3606 
 162   2.0000      -0.487698       -13.2709 
 163   2.0000      -0.483687       -13.1618 
 164   2.0000      -0.482471       -13.1287 
 165   2.0000      -0.481915       -13.1136 
 166   2.0000      -0.479234       -13.0406 
 167   2.0000      -0.477334       -12.9889 
 168   2.0000      -0.476413       -12.9639 
 169   2.0000      -0.475845       -12.9484 
 170   2.0000      -0.474188       -12.9033 
 171   2.0000      -0.461210       -12.5502 
 172   2.0000      -0.459698       -12.5090 
 173   2.0000      -0.459174       -12.4948 
 174   2.0000      -0.458620       -12.4797 
 175   2.0000      -0.444679       -12.1003 
 176   2.0000      -0.431117       -11.7313 
 177   2.0000      -0.419220       -11.4076 
 178   2.0000      -0.409758       -11.1501 
 179   2.0000      -0.404219       -10.9993 
 180   2.0000      -0.402102       -10.9418 
 181   2.0000      -0.395866       -10.7721 
 182   2.0000      -0.392387       -10.6774 
 183   2.0000      -0.388285       -10.5658 
 184   2.0000      -0.386280       -10.5112 
 185   2.0000      -0.384799       -10.4709 
 186   2.0000      -0.360444        -9.8082 
 187   2.0000      -0.357988        -9.7414 
 188   2.0000      -0.352781        -9.5997 
 189   0.0000      -0.027913        -0.7595 
 190   0.0000      -0.023114        -0.6290 
 191   0.0000      -0.021235        -0.5778 
 192   0.0000      -0.010635        -0.2894 
 193   0.0000      -0.007966        -0.2168 
 194   0.0000      -0.006800        -0.1850 
 195   0.0000       0.036788         1.0011 
 196   0.0000       0.042652         1.1606 
 197   0.0000       0.044782         1.2186 
 198   0.0000       0.061779         1.6811 
 199   0.0000       0.062934         1.7125 
 200   0.0000       0.069777         1.8987 
 201   0.0000       0.093819         2.5530 
 202   0.0000       0.097019         2.6400 
 203   0.0000       0.098052         2.6681 
 204   0.0000       0.118209         3.2166 
 205   0.0000       0.121670         3.3108 
 206   0.0000       0.126355         3.4383 
 207   0.0000       0.129871         3.5340 
 208   0.0000       0.157573         4.2878 
 209   0.0000       0.160379         4.3641 
 210   0.0000       0.165410         4.5010 
 211   0.0000       0.167678         4.5627 
 212   0.0000       0.171076         4.6552 
 213   0.0000       0.173421         4.7190 
 214   0.0000       0.176390         4.7998 
 215   0.0000       0.187108         5.0915 
 216   0.0000       0.189220         5.1489 
 217   0.0000       0.201830         5.4921 
 218   0.0000       0.202807         5.5187 
 219   0.0000       0.211142         5.7455 
 220   0.0000       0.212999         5.7960 
 221   0.0000       0.213530         5.8104 
 222   0.0000       0.217545         5.9197 
 223   0.0000       0.221623         6.0307 
 224   0.0000       0.225570         6.1381 
 225   0.0000       0.228082         6.2064 
 226   0.0000       0.230152         6.2627 
 227   0.0000       0.231511         6.2997 
 228   0.0000       0.237587         6.4651 
 229   0.0000       0.239786         6.5249 
 230   0.0000       0.242197         6.5905 
 231   0.0000       0.246271         6.7014 
 232   0.0000       0.247863         6.7447 
 233   0.0000       0.250388         6.8134 
 234   0.0000       0.255149         6.9430 
 235   0.0000       0.257529         7.0077 
 236   0.0000       0.262964         7.1556 
 237   0.0000       0.266804         7.2601 
 238   0.0000       0.271324         7.3831 
 239   0.0000       0.274305         7.4642 
 240   0.0000       0.277401         7.5485 
 241   0.0000       0.278473         7.5776 
 242   0.0000       0.283965         7.7271 
 243   0.0000       0.290319         7.9000 
 244   0.0000       0.293791         7.9945 
 245   0.0000       0.297984         8.1086 
 246   0.0000       0.305253         8.3064 
 247   0.0000       0.320655         8.7255 
 248   0.0000       0.323145         8.7932 
[...]
   160a -> 189a  :     0.015911 
   162a -> 189a  :     0.025280 
   164a -> 189a  :     0.024769 
   166a -> 189a  :     0.022757 
   170a -> 189a  :     0.026856 
   175a -> 189a  :     0.049418 
   176a -> 189a  :     0.016047 
   178a -> 191a  :     0.019054 
   179a -> 190a  :     0.021591 
   179a -> 191a  :     0.035796 
   180a -> 190a  :     0.020278 
   181a -> 189a  :     0.013786 
   182a -> 189a  :     0.038750 
   183a -> 189a  :     0.053611 
   184a -> 189a  :     0.038298 
   186a -> 190a  :     0.010305 
   187a -> 190a  :     0.015889 
   187a -> 195a  :     0.014509 
   188a -> 189a  :     0.014307 
   188a -> 191a  :     0.138501 
   188a -> 193a  :     0.010778 
   188a -> 195a  :     0.014312 
   188a -> 197a  :     0.013628 

STATE 38:  E=   0.168359 au      4.581 eV    36950.5 cm**-1 <S**2> =   0.000000
   170a -> 190a  :     0.015926 
   171a -> 190a  :     0.012072 
   175a -> 191a  :     0.027608 
   176a -> 189a  :     0.171440 
   177a -> 190a  :     0.020219 
   178a -> 189a  :     0.043493 
   178a -> 190a  :     0.014410 
   178a -> 191a  :     0.033130 
   179a -> 189a  :     0.010332 
   179a -> 190a  :     0.028634 
   182a -> 189a  :     0.015835 
   183a -> 189a  :     0.011450 
   183a -> 191a  :     0.022234 
   185a -> 191a  :     0.020338 
   186a -> 189a  :     0.031023 
   186a -> 190a  :     0.018390 
   186a -> 197a  :     0.010532 
   187a -> 196a  :     0.015177 
   188a -> 191a  :     0.148726 

STATE 39:  E=   0.169207 au      4.604 eV    37136.7 cm**-1 <S**2> =   0.000000
   162a -> 190a  :     0.010734 
   164a -> 190a  :     0.023723 
   166a -> 189a  :     0.010253 
   166a -> 191a  :     0.027549 
   170a -> 190a  :     0.082366 
   170a -> 194a  :     0.012429 
   170a -> 196a  :     0.011944 
   171a -> 191a  :     0.014547 
   175a -> 191a  :     0.011496 
   176a -> 189a  :     0.025656 
   176a -> 190a  :     0.036966 
   177a -> 190a  :     0.022103 
   177a -> 191a  :     0.025354 
   178a -> 189a  :     0.018891 
   178a -> 191a  :     0.018163 
   179a -> 190a  :     0.046869 
   179a -> 191a  :     0.039048 
   180a -> 190a  :     0.060777 
   180a -> 191a  :     0.026664 
   183a -> 189a  :     0.010716 

STATE 40:  E=   0.188444 au      5.128 eV    41358.7 cm**-1 <S**2> =   0.000000
   166a -> 189a  :     0.019528 
   173a -> 194a  :     0.012675 
   175a -> 191a  :     0.035022 
   176a -> 189a  :     0.037187 
   178a -> 191a  :     0.036905 
   181a -> 190a  :     0.012412 
   182a -> 189a  :     0.065353 
   182a -> 190a  :     0.012441 
   183a -> 191a  :     0.022839 
   184a -> 189a  :     0.144096 
   184a -> 190a  :     0.128693 
   184a -> 198a  :     0.029562 
   185a -> 191a  :     0.023857 
   186a -> 194a  :     0.017965 
   187a -> 194a  :     0.010351 
   188a -> 194a  :     0.013521 


-------------------------
TD-DFT-EXCITATION SPECTRA
-------------------------

Center of mass = (  0.0094, -0.0328,  0.0096)
Calculating the Dipole integrals                  ... done
Transforming integrals                            ... done
Calculating the Linear Momentum integrals         ... done
Transforming integrals                            ... done
Calculating angular momentum integrals            ... done
Transforming integrals                            ... done

-----------------------------------------------------------------------------
         ABSORPTION SPECTRUM VIA TRANSITION ELECTRIC DIPOLE MOMENTS
-----------------------------------------------------------------------------
State   Energy    Wavelength  fosc         T2        TX        TY        TZ  
        (cm-1)      (nm)                 (au**2)    (au)      (au)      (au) 
-----------------------------------------------------------------------------
   1   13872.5    720.9   0.000018601   0.00044   0.01989  -0.00491  -0.00467
   2   14274.7    700.5   0.000016940   0.00039   0.01867   0.00114  -0.00639
   3   14923.1    670.1   0.000036024   0.00079   0.02566  -0.00675  -0.00954
   4   24507.7    408.0   0.000044469   0.00060   0.00449   0.00491  -0.02352
   5   25064.2    399.0   0.000048530   0.00064   0.01819   0.01648   0.00592
   6   26078.6    383.5   0.000009337   0.00012  -0.00252   0.00394  -0.00980
   7   32513.7    307.6   0.374668664   3.79364   0.97527  -0.92079  -1.41232
   8   31118.5    321.4   0.000215263   0.00228   0.02790  -0.00590   0.03826
   9   31105.4    321.5   0.005276038   0.05584   0.15679   0.05505  -0.16801
  10   31134.3    321.2   0.002409873   0.02548   0.05577  -0.07168  -0.13128
  11   33571.1    297.9   0.489805705   4.80323  -1.54658  -0.61208   1.42713
  12   33652.1    297.2   0.639156157   6.25274   1.79645  -1.67206   0.47929
  13   35483.8    281.8   0.006854829   0.06360  -0.16214   0.18535   0.05437
  14   35653.4    280.5   0.002347789   0.02168  -0.14477  -0.01880  -0.01918
  15   35772.6    279.5   0.000022978   0.00021   0.00770  -0.00597   0.01079
  16   34447.6    290.3   0.029236171   0.27941   0.43271   0.30185   0.03253
  17   35117.8    284.8   0.056805037   0.53252  -0.53858   0.43848   0.22403
  18   35052.9    285.3   0.027938797   0.26240  -0.50618  -0.07243   0.03053
  19   38645.2    258.8   0.044012868   0.37494   0.11283  -0.52812  -0.28860
  20   39266.7    254.7   0.074385058   0.62364  -0.37982   0.54905  -0.42181
  21   38807.8    257.7   0.164244192   1.39331   0.93129   0.65226  -0.31712
  22   34444.3    290.3   0.045970578   0.43938   0.50364   0.41270  -0.12410
  23   36089.5    277.1   0.070055887   0.63906  -0.13198  -0.52176  -0.59110
  24   36127.0    276.8   0.079110882   0.72091  -0.10483   0.68592  -0.48932
  25   37081.3    269.7   0.046320281   0.41124  -0.46021   0.13743   0.42492
  26   38096.3    262.5   0.131656675   1.13772  -0.99845  -0.33131   0.17621
  27   35666.6    280.4   0.102608858   0.94711   0.07977   0.86146  -0.44569
  28   39636.5    252.3   0.039297866   0.32640  -0.44485   0.09318   0.34616
  29   36902.6    271.0   0.078218339   0.69779   0.72629   0.34596  -0.22496
  30   29786.3    335.7   0.007830132   0.08654  -0.00167  -0.29141   0.04023
  31   28722.8    348.2   0.005574886   0.06390  -0.18008   0.02528   0.17559
  32   30351.9    329.5   0.006370698   0.06910  -0.15008   0.04201  -0.21169
  33   32541.4    307.3   0.011016931   0.11146   0.14934   0.22234  -0.19929
  34   31059.4    322.0   0.070242005   0.74453   0.01182   0.12155   0.85417
  35   36675.0    272.7   0.084167223   0.75552   0.03713   0.64614  -0.58021
  36   42832.7    233.5   0.025748365   0.19790  -0.13083  -0.30313  -0.29816
  37   38558.5    259.3   0.111440584   0.95148   0.65253  -0.05459  -0.72298
  38   36950.5    270.6   0.130893303   1.16620   0.24820   0.92782  -0.49371
  39   37136.7    269.3   0.017205736   0.15253   0.11046   0.24465   0.28367
  40   41358.7    241.8   0.154808508   1.23226  -0.30913   1.03589   0.25224

-----------------------------------------------------------------------------
         ABSORPTION SPECTRUM VIA TRANSITION VELOCITY DIPOLE MOMENTS
-----------------------------------------------------------------------------
State   Energy    Wavelength   fosc        P2         PX        PY        PZ  
        (cm-1)      (nm)                 (au**2)     (au)      (au)      (au) 
-----------------------------------------------------------------------------
   1   13872.5    720.9   0.000061985   0.00001  -0.00108  -0.00150   0.00156
   2   14274.7    700.5   0.000012405   0.00000  -0.00045   0.00042   0.00091
   3   14923.1    670.1   0.000037474   0.00000   0.00090  -0.00084  -0.00152
   4   24507.7    408.0   0.000168352   0.00003  -0.00052  -0.00148   0.00507
   5   25064.2    399.0   0.000141540   0.00002  -0.00315  -0.00336  -0.00174
   6   26078.6    383.5   0.000013568   0.00000   0.00013   0.00021   0.00153
   7   32513.7    307.6   0.420035023   0.09334  -0.15090   0.14229   0.22432
   8   31118.5    321.4   0.000305372   0.00006  -0.00463   0.00074  -0.00655
   9   31105.4    321.5   0.006788677   0.00144  -0.02481  -0.00876   0.02741
  10   31134.3    321.2   0.003054237   0.00065  -0.00866   0.01147   0.02106
  11   33571.1    297.9   0.553474003   0.12699   0.24913   0.09942  -0.23460
  12   33652.1    297.2   0.726170975   0.16702  -0.29285   0.27511  -0.07464
  13   35483.8    281.8   0.009183780   0.00223   0.03001  -0.03326  -0.01484
  14   35653.4    280.5   0.003160541   0.00077   0.02775  -0.00016   0.00002
  15   35772.6    279.5   0.000022301   0.00001   0.00020  -0.00106   0.00207
  16   34447.6    290.3   0.040438885   0.00952  -0.07727  -0.05899  -0.00845
  17   35117.8    284.8   0.078433442   0.01883   0.10317  -0.08111  -0.04004
  18   35052.9    285.3   0.038176161   0.00915   0.09454   0.01281  -0.00667
  19   38645.2    258.8   0.048517356   0.01281  -0.02091   0.09706   0.05438
  20   39266.7    254.7   0.085085869   0.02283   0.07229  -0.10591   0.07995
  21   38807.8    257.7   0.191022925   0.05067  -0.17810  -0.12364   0.06048
  22   34444.3    290.3   0.065337468   0.01538  -0.09449  -0.07714   0.02243
  23   36089.5    277.1   0.104663130   0.02582   0.02752   0.10657   0.11705
  24   36127.0    276.8   0.112690767   0.02782   0.02341  -0.13411   0.09638
  25   37081.3    269.7   0.063423453   0.01607   0.09129  -0.02324  -0.08485
  26   38096.3    262.5   0.166751649   0.04342   0.19555   0.06211  -0.03634
  27   35666.6    280.4   0.155842260   0.03799  -0.01335  -0.17211   0.09050
  28   39636.5    252.3   0.047286309   0.01281   0.08960  -0.01975  -0.06627
  29   36902.6    271.0   0.112584373   0.02839  -0.14776  -0.06914   0.04220
  30   29786.3    335.7   0.018743913   0.00382   0.00059   0.06152  -0.00551
  31   28722.8    348.2   0.015660160   0.00307   0.03914  -0.00530  -0.03891
  32   30351.9    329.5   0.014419257   0.00299   0.02937  -0.01102   0.04480
  33   32541.4    307.3   0.022014908   0.00490  -0.03279  -0.04669   0.04051
  34   31059.4    322.0   0.174484661   0.03704  -0.00277  -0.02847  -0.19032
  35   36675.0    272.7   0.150722266   0.03778  -0.00978  -0.14605   0.12788
  36   42832.7    233.5   0.040475399   0.01185   0.03061   0.07631   0.07133
  37   38558.5    259.3   0.180216673   0.04749  -0.14290   0.01196   0.16410
  38   36950.5    270.6   0.235376555   0.05944  -0.05361  -0.20902   0.11349
  39   37136.7    269.3   0.029817232   0.00757  -0.02790  -0.05359  -0.06259
  40   41358.7    241.8   0.238740588   0.06748   0.08089  -0.23959  -0.05946

-------------------------------------------------------------------
                             CD SPECTRUM
-------------------------------------------------------------------
State  Energy     Wavelength     R         MX        MY        MZ   
       (cm-1)       (nm)     (1e40*cgs)   (au)      (au)      (au)  
-------------------------------------------------------------------
   1   13872.5    720.9      6.52277   0.55333   0.44666  -1.07595
   2   14274.7    700.5     -0.08282  -0.13037  -1.16069  -0.56050
   3   14923.1    670.1     13.35110   1.17452  -0.34785   0.43628
   4   24507.7    408.0     -0.85387   0.02862  -0.05136   0.07176
   5   25064.2    399.0     -0.54618  -0.02065  -0.03816  -0.02604
   6   26078.6    383.5     -0.13639  -0.00641  -0.02065   0.02286
   7   32513.7    307.6    -313.57493   0.42852   0.30072   0.57080
   8   31118.5    321.4      3.72946  -0.04881  -0.38636   0.18277
   9   31105.4    321.5     25.42441   0.30253  -0.08366  -0.06607
  10   31134.3    321.2      2.61590  -0.16880  -0.38002   0.09353
  11   33571.1    297.9    -559.85172   0.15699   1.05347  -0.21015
  12   33652.1    297.2    801.84081   0.88149  -0.38685  -1.10498
  13   35483.8    281.8    -55.23531   0.51287  -0.09504  -0.30149
  14   35653.4    280.5    -36.24671   0.52817  -0.15952   0.17834
  15   35772.6    279.5      0.03940   0.04596  -0.48828  -0.29520
  16   34447.6    290.3     12.76690   0.08567  -0.05209   0.17630
  17   35117.8    284.8     30.56503  -0.15909   0.09310  -0.27529
  18   35052.9    285.3     27.75270  -0.06619  -0.29926   0.12085
  19   38645.2    258.8    -125.73047   0.08122   0.03831   0.88572
  20   39266.7    254.7     92.22900  -0.51431   0.23299   0.30261
  21   38807.8    257.7     88.76001   0.31058  -0.21695  -0.12783
  22   34444.3    290.3     15.51208   0.15905   0.00917   0.41086
  23   36089.5    277.1    -318.40833  -0.21362   0.30941   0.91716
  24   36127.0    276.8    185.02625  -0.42925   0.53102   0.03428
  25   37081.3    269.7    -114.60387   0.09393   0.19323  -0.53284
  26   38096.3    262.5    -123.20180   0.12735   0.25035  -0.29070
  27   35666.6    280.4    287.21927  -0.26005   0.63770  -0.18089
  28   39636.5    252.3    -104.62932  -0.03562   0.01691  -0.69146
  29   36902.6    271.0     14.79137  -0.03320   0.11777  -0.06552
  30   29786.3    335.7     -0.44158   0.07257  -0.00215  -0.03585
  31   28722.8    348.2     -2.71474   0.01806   0.16154  -0.03753
  32   30351.9    329.5     22.55714  -0.05295   0.01374  -0.18576
  33   32541.4    307.3     16.51312   0.05418   0.01439  -0.11910
  34   31059.4    322.0    -44.90892   0.13619   0.03171  -0.11792
  35   36675.0    272.7    -92.39232  -0.21704  -0.00769   0.31531
  36   42832.7    233.5     65.57020   0.01238   0.00509  -0.47707
  37   38558.5    259.3    -162.48289  -0.24521   0.04475   0.25201
  38   36950.5    270.6    -122.45040  -0.08851  -0.43058  -0.32759
  39   37136.7    269.3     32.21609   0.33341  -0.23361   0.31254
  40   41358.7    241.8    -34.58739   0.11322   0.03896  -0.31212

-------------------------------------------------------------------
         CD SPECTRUM VIA TRANSITION VELOCITY DIPOLE MOMENTS        
-------------------------------------------------------------------
State  Energy     Wavelength     R         MX        MY        MZ   
       (cm-1)       (nm)     (1e40*cgs)   (au)      (au)      (au)  
-------------------------------------------------------------------
   1   13872.5    720.9     22.03031   0.55333   0.44666  -1.07595
   2   14274.7    700.5      6.81894  -0.13037  -1.16069  -0.56050
   3   14923.1    670.1     -4.78014   1.17452  -0.34785   0.43628
   4   24507.7    408.0     -1.79471   0.02862  -0.05136   0.07176
   5   25064.2    399.0     -0.98487  -0.02065  -0.03816  -0.02604
   6   26078.6    383.5     -0.11853  -0.00641  -0.02065   0.02286
   7   32513.7    307.6    -337.87093   0.42852   0.30072   0.57080
   8   31118.5    321.4      4.18713  -0.04881  -0.38636   0.18277
   9   31105.4    321.5     28.55077   0.30253  -0.08366  -0.06607
  10   31134.3    321.2      3.07528  -0.16880  -0.38002   0.09353
  11   33571.1    297.9    -595.31332   0.15699   1.05347  -0.21015
  12   33652.1    297.2    867.37221   0.88149  -0.38685  -1.10498
  13   35483.8    281.8    -67.15150   0.51287  -0.09504  -0.30149
  14   35653.4    280.5    -42.62044   0.52817  -0.15952   0.17834
  15   35772.6    279.5      0.23851   0.04596  -0.48828  -0.29520
  16   34447.6    290.3     15.12593   0.08567  -0.05209   0.17630
  17   35117.8    284.8     38.13402  -0.15909   0.09310  -0.27529
  18   35052.9    285.3     32.16730  -0.06619  -0.29926   0.12085
  19   38645.2    258.8    -134.36966   0.08122   0.03831   0.88572
  20   39266.7    254.7     99.24711  -0.51431   0.23299   0.30261
  21   38807.8    257.7     96.57350   0.31058  -0.21695  -0.12783
  22   34444.3    290.3     19.58921   0.15905   0.00917   0.41086
  23   36089.5    277.1    -385.47608  -0.21362   0.30941   0.91716
  24   36127.0    276.8    223.29588  -0.42925   0.53102   0.03428
  25   37081.3    269.7    -137.55634   0.09393   0.19323  -0.53284
  26   38096.3    262.5    -138.56633   0.12735   0.25035  -0.29070
  27   35666.6    280.4    355.81459  -0.26005   0.63770  -0.18089
  28   39636.5    252.3    -110.41025  -0.03562   0.01691  -0.69146
  29   36902.6    271.0     16.82954  -0.03320   0.11777  -0.06552
  30   29786.3    335.7     -0.37447   0.07257  -0.00215  -0.03585
  31   28722.8    348.2     -4.72295   0.01806   0.16154  -0.03753
  32   30351.9    329.5     34.18728  -0.05295   0.01374  -0.18576
  33   32541.4    307.3     23.12587   0.05418   0.01439  -0.11910
  34   31059.4    322.0    -70.49769   0.13619   0.03171  -0.11792
  35   36675.0    272.7    -122.91665  -0.21704  -0.00769   0.31531
  36   42832.7    233.5     80.35313   0.01238   0.00509  -0.47707
  37   38558.5    259.3    -206.43969  -0.24521   0.04475   0.25201
  38   36950.5    270.6    -161.20304  -0.08851  -0.43058  -0.32759
  39   37136.7    269.3     45.53551   0.33341  -0.23361   0.31254
  40   41358.7    241.8    -45.98625   0.11322   0.03896  -0.31212

Total run time:    11984.655 sec

           *** ORCA-CIS/TD-DFT FINISHED WITHOUT ERROR ***

Maximum memory used throughout the entire CIS-calculation: 5291.5 MB

-----------------------
CIS/TD-DFT TOTAL ENERGY
-----------------------

    E(SCF)  =  -3586.725768790 Eh
    DE(CIS) =      0.063207538 Eh (Root  1)
    ----------------------------- ---------
    E(tot)  =  -3586.662561253 Eh


-------------------------   --------------------
FINAL SINGLE POINT ENERGY     -3586.662561252639
-------------------------   --------------------


                            ***************************************
                            *     ORCA property calculations      *
                            ***************************************


  WARNING: The energy has been calculated at the MP2 level but the densities
           used in the property calculations are still SCF densities
           MP2 response densities have not been calculated 
           use %mp2 Density relaxed end
           or  %mp2 Density unrelaxed end

                                    ---------------------
                                    Active property flags
                                    ---------------------
   (+) Dipole Moment


------------------------------------------------------------------------------
                       ORCA ELECTRIC PROPERTIES CALCULATION
------------------------------------------------------------------------------

Dipole Moment Calculation                       ... on
Quadrupole Moment Calculation                   ... off
Polarizability Calculation                      ... off
GBWName                                         ... FeC_4_SOS-wPBEPP86_def2SVP.gbw
Electron density                                ... FeC_4_SOS-wPBEPP86_def2SVP.scfp
The origin for moment calculation is the CENTER OF MASS  = ( 0.009357, -0.032827  0.009578)

-------------
DIPOLE MOMENT
-------------
                                X             Y             Z
Electronic contribution:      1.41291      -3.98356       1.65683
Nuclear contribution   :     -3.55560      12.47427      -3.63977
                        -----------------------------------------
Total Dipole Moment    :     -2.14269       8.49071      -1.98294
                        -----------------------------------------
Magnitude (a.u.)       :      8.97860
Magnitude (Debye)      :     22.82179



--------------------
Rotational spectrum 
--------------------
 
Rotational constants in cm-1:     0.002355     0.001850     0.001763 
Rotational constants in MHz :    70.590597    55.472984    52.857218 

 Dipole components along the rotational axes: 
x,y,z [a.u.] :    -2.120502     8.548268     1.745244 
x,y,z [Debye]:    -5.389888    21.727972     4.436058 

 

Timings for individual modules:

Sum of individual times         ...    13307.700 sec (= 221.795 min)
GTO integral calculation        ...        2.361 sec (=   0.039 min)   0.0 %
SCF iterations                  ...      811.275 sec (=  13.521 min)   6.1 %
MP2 module                      ...      507.201 sec (=   8.453 min)   3.8 %
CIS module                      ...    11986.862 sec (= 199.781 min)  90.1 %
                             ****ORCA TERMINATED NORMALLY****
TOTAL RUN TIME: 0 days 3 hours 41 minutes 50 seconds 989 msec
